 Entering Gaussian System, Link 0=g16
 Initial command:
 /apps/cent7/gaussian/g16-B.01/g16-haswell/g16/l1.exe "/scratch/bell/zhao922/YARP/paper-example/KHP-network/pp_0/IRC-folder/Gau-71252.inp" -scrdir="/scratch/bell/zhao922/YARP/paper-example/KHP-network/pp_0/IRC-folder/"
 Entering Link 1 = /apps/cent7/gaussian/g16-B.01/g16-haswell/g16/l1.exe PID=     71253.
  
 Copyright (c) 1988-2017, Gaussian, Inc.  All Rights Reserved.
  
 This is part of the Gaussian(R) 16 program.  It is based on
 the Gaussian(R) 09 system (copyright 2009, Gaussian, Inc.),
 the Gaussian(R) 03 system (copyright 2003, Gaussian, Inc.),
 the Gaussian(R) 98 system (copyright 1998, Gaussian, Inc.),
 the Gaussian(R) 94 system (copyright 1995, Gaussian, Inc.),
 the Gaussian 92(TM) system (copyright 1992, Gaussian, Inc.),
 the Gaussian 90(TM) system (copyright 1990, Gaussian, Inc.),
 the Gaussian 88(TM) system (copyright 1988, Gaussian, Inc.),
 the Gaussian 86(TM) system (copyright 1986, Carnegie Mellon
 University), and the Gaussian 82(TM) system (copyright 1983,
 Carnegie Mellon University). Gaussian is a federally registered
 trademark of Gaussian, Inc.
  
 This software contains proprietary and confidential information,
 including trade secrets, belonging to Gaussian, Inc.
  
 This software is provided under written license and may be
 used, copied, transmitted, or stored only in accord with that
 written license.
  
 The following legend is applicable only to US Government
 contracts under FAR:
  
                    RESTRICTED RIGHTS LEGEND
  
 Use, reproduction and disclosure by the US Government is
 subject to restrictions as set forth in subparagraphs (a)
 and (c) of the Commercial Computer Software - Restricted
 Rights clause in FAR 52.227-19.
  
 Gaussian, Inc.
 340 Quinnipiac St., Bldg. 40, Wallingford CT 06492
  
  
 ---------------------------------------------------------------
 Warning -- This program may not be used in any manner that
 competes with the business of Gaussian, Inc. or will provide
 assistance to any competitor of Gaussian, Inc.  The licensee
 of this program is prohibited from giving any competitor of
 Gaussian, Inc. access to this program.  By using this program,
 the user acknowledges that Gaussian, Inc. is engaged in the
 business of creating and licensing software in the field of
 computational chemistry and represents and warrants to the
 licensee that it is not a competitor of Gaussian, Inc. and that
 it will not use this program in any manner prohibited above.
 ---------------------------------------------------------------
  

 Cite this work as:
 Gaussian 16, Revision B.01,
 M. J. Frisch, G. W. Trucks, H. B. Schlegel, G. E. Scuseria, 
 M. A. Robb, J. R. Cheeseman, G. Scalmani, V. Barone, 
 G. A. Petersson, H. Nakatsuji, X. Li, M. Caricato, A. V. Marenich, 
 J. Bloino, B. G. Janesko, R. Gomperts, B. Mennucci, H. P. Hratchian, 
 J. V. Ortiz, A. F. Izmaylov, J. L. Sonnenberg, D. Williams-Young, 
 F. Ding, F. Lipparini, F. Egidi, J. Goings, B. Peng, A. Petrone, 
 T. Henderson, D. Ranasinghe, V. G. Zakrzewski, J. Gao, N. Rega, 
 G. Zheng, W. Liang, M. Hada, M. Ehara, K. Toyota, R. Fukuda, 
 J. Hasegawa, M. Ishida, T. Nakajima, Y. Honda, O. Kitao, H. Nakai, 
 T. Vreven, K. Throssell, J. A. Montgomery, Jr., J. E. Peralta, 
 F. Ogliaro, M. J. Bearpark, J. J. Heyd, E. N. Brothers, K. N. Kudin, 
 V. N. Staroverov, T. A. Keith, R. Kobayashi, J. Normand, 
 K. Raghavachari, A. P. Rendell, J. C. Burant, S. S. Iyengar, 
 J. Tomasi, M. Cossi, J. M. Millam, M. Klene, C. Adamo, R. Cammi, 
 J. W. Ochterski, R. L. Martin, K. Morokuma, O. Farkas, 
 J. B. Foresman, and D. J. Fox, Gaussian, Inc., Wallingford CT, 2016.
 
 ******************************************
 Gaussian 16:  ES64L-G16RevB.01 20-Dec-2017
                23-Dec-2020 
 ******************************************
 %NProcShared=16
 Will use up to   16 processors via shared memory.
 %Mem=6GB
 ----------------------------------------------------------------------
 # B3LYP/6-31+G* IRC=(CALCALL, maxpoints=40, StepSize=15, maxcyc=100, R
 eport=Cartesians)
 ----------------------------------------------------------------------
 1/6=100,10=4,18=10,26=3,38=1,39=15,42=40,44=3,71=1,129=10,172=1/1,23;
 2/12=2,17=6,18=5,29=1,40=1/2;
 3/5=1,6=6,7=11,11=2,25=1,30=1,71=2,74=-5,140=1/1,2,3;
 4//1;
 5/5=2,38=5/2;
 8/6=4,10=90,11=11/1;
 11/6=1,8=1,9=11,15=111,16=1/1,2,10;
 10/6=1,13=1/2;
 6/7=2,8=2,9=2,10=2,18=1,28=1/1;
 7/10=1,25=1/1,2,3,16;
 1/6=100,10=4,18=10,26=3,39=15,42=40,44=3,71=1,129=10/23(2);
 2/29=1/2;
 99/5=20/99;
 2/29=1/2;
 3/5=1,6=6,7=11,11=2,25=1,30=1,71=2,74=-5,140=1/1,2,3;
 4/5=5,16=3,69=1/1;
 5/5=2,38=5/2;
 8/6=4,10=90,11=11/1;
 11/6=1,8=1,9=11,15=111,16=1/1,2,10;
 10/6=1,13=1/2;
 7/10=1,25=1/1,2,3,16;
 1/6=100,10=4,18=10,26=3,39=15,42=40,44=3,71=1,129=10/23(-8);
 2/29=1/2;
 6/7=2,8=2,9=2,10=2,18=1,19=2,28=1/1;
 99/5=20/99;
 -----------
 pp_15_0 IRC
 -----------
 Symbolic Z-matrix:
 Charge =  0 Multiplicity = 1
 C                     0.44895   0.70389   0.2881 
 C                    -0.57592  -0.14074  -0.38902 
 C                    -1.8924   -0.22915   0.35235 
 O                     1.68998   0.72969  -0.22249 
 O                     2.53456  -0.89623   0.17746 
 O                    -2.97517  -0.12422  -0.17983 
 H                     3.12579  -0.99047  -0.59198 
 H                     1.31005   1.79984  -0.08157 
 H                     0.35826   0.92147   1.3572 
 H                    -1.81652  -0.41716   1.44563 
 H                    -0.11559  -1.14867  -0.40845 
 H                    -0.74072   0.157    -1.43051 
 
 IRC-IRC-IRC-IRC-IRC-IRC-IRC-IRC-IRC-IRC-IRC-IRC-IRC-IRC-IRC-IRC-IRC-IRC
 ------------------------------------------------------------------------
 INPUT DATA FOR L123
 ------------------------------------------------------------------------
 GENERAL PARAMETERS:
 Follow reaction path in both directions.
 Maximum points per path      =  40
 Step size                    =   0.150 bohr
 Integration scheme           = HPC                                 
    Redo corrector integration= Yes                                 
    DWI Weight Power          =  2
    DWI will use Hessian update vectors when possible.
    Max correction cycles     = 100
 Initial Hessian              = CalcFC
 Hessian evaluation           = Analytic at all predictor steps
                              = Update at all corrector steps
 Hessian updating method      = Bofill                              
 ------------------------------------------------------------------------
 IRC-IRC-IRC-IRC-IRC-IRC-IRC-IRC-IRC-IRC-IRC-IRC-IRC-IRC-IRC-IRC-IRC-IRC
                          Input orientation:                          
 ---------------------------------------------------------------------
 Center     Atomic      Atomic             Coordinates (Angstroms)
 Number     Number       Type             X           Y           Z
 ---------------------------------------------------------------------
      1          6           0        0.448949    0.703887    0.288098
      2          6           0       -0.575921   -0.140741   -0.389023
      3          6           0       -1.892403   -0.229145    0.352349
      4          8           0        1.689979    0.729692   -0.222489
      5          8           0        2.534561   -0.896226    0.177464
      6          8           0       -2.975168   -0.124217   -0.179833
      7          1           0        3.125786   -0.990470   -0.591976
      8          1           0        1.310054    1.799836   -0.081572
      9          1           0        0.358259    0.921472    1.357203
     10          1           0       -1.816517   -0.417163    1.445626
     11          1           0       -0.115591   -1.148672   -0.408445
     12          1           0       -0.740720    0.157001   -1.430512
 ---------------------------------------------------------------------
                    Distance matrix (angstroms):
                    1          2          3          4          5
     1  C    0.000000
     2  C    1.490721   0.000000
     3  C    2.521231   1.513464   0.000000
     4  O    1.342207   2.433041   3.752768   0.000000
     5  O    2.631041   3.250656   4.480356   1.875337   0.000000
     6  O    3.553772   2.408406   1.211036   4.742845   5.575013
     7  H    3.287983   3.803402   5.162711   2.270907   0.974919
     8  H    1.441965   2.723466   3.815859   1.144294   2.972418
     9  H    1.094785   2.247286   2.720134   2.075014   3.071172
    10  H    2.780101   2.231911   1.111919   4.048876   4.557369
    11  H    2.058119   1.108244   2.140420   2.612071   2.725862
    12  H    2.160559   1.095677   2.157331   2.774093   3.797676
                    6          7          8          9         10
     6  O    0.000000
     7  H    6.175913   0.000000
     8  H    4.698379   3.367967   0.000000
     9  H    3.816763   3.887676   1.935849   0.000000
    10  H    2.017525   5.376510   4.125877   2.555272   0.000000
    11  H    3.046137   3.250421   3.291354   2.761801   2.620274
    12  H    2.576051   4.119430   2.953679   3.092495   3.123968
                   11         12
    11  H    0.000000
    12  H    1.772058   0.000000
 Symmetry turned off by external request.
 Stoichiometry    C3H6O3
 Framework group  C1[X(C3H6O3)]
 Deg. of freedom    30
 Full point group                 C1      NOp   1
 Rotational constants (GHZ):          10.5943139           1.3750840           1.2955091
 Standard basis: 6-31+G(d) (6D, 7F)
   126 basis functions,   216 primitive gaussians,   126 cartesian basis functions
    24 alpha electrons       24 beta electrons
       nuclear repulsion energy       224.4111053967 Hartrees.
 NAtoms=   12 NActive=   12 NUniq=   12 SFac= 1.00D+00 NAtFMM=   60 NAOKFM=F Big=F
 Integral buffers will be    131072 words long.
 Raffenetti 2 integral format.
 Two-electron integral symmetry is turned off.
 One-electron integrals computed using PRISM.
 NBasis=   126 RedAO= T EigKep=  1.09D-04  NBF=   126
 NBsUse=   126 1.00D-06 EigRej= -1.00D+00 NBFU=   126
 ExpMin= 4.38D-02 ExpMax= 5.48D+03 ExpMxC= 8.25D+02 IAcc=3 IRadAn=         5 AccDes= 0.00D+00
 Harris functional with IExCor=  402 and IRadAn=       5 diagonalized for initial guess.
 HarFok:  IExCor=  402 AccDes= 0.00D+00 IRadAn=         5 IDoV= 1 UseB2=F ITyADJ=14
 ICtDFT=  3500011 ScaDFX=  1.000000  1.000000  1.000000  1.000000
 FoFCou: FMM=F IPFlag=           0 FMFlag=      100000 FMFlg1=           0
         NFxFlg=           0 DoJE=T BraDBF=F KetDBF=T FulRan=T
         wScrn=  0.000000 ICntrl=       500 IOpCl=  0 I1Cent=   200000004 NGrid=           0
         NMat0=    1 NMatS0=      1 NMatT0=    0 NMatD0=    1 NMtDS0=    0 NMtDT0=    0
 Symmetry not used in FoFCou.
 Keep R1 ints in memory in canonical form, NReq=47237243.
 Requested convergence on RMS density matrix=1.00D-08 within 128 cycles.
 Requested convergence on MAX density matrix=1.00D-06.
 Requested convergence on             energy=1.00D-06.
 No special actions if energy rises.
 EnCoef did     4 forward-backward iterations
 SCF Done:  E(RB3LYP) =  -343.387718526     A.U. after   18 cycles
            NFock= 18  Conv=0.23D-08     -V/T= 2.0092
 DoSCS=F DFT=T ScalE2(SS,OS)=  1.000000  1.000000
 Range of M.O.s used for correlation:     1   126
 NBasis=   126 NAE=    24 NBE=    24 NFC=     0 NFV=     0
 NROrb=    126 NOA=    24 NOB=    24 NVA=   102 NVB=   102

 **** Warning!!: The largest alpha MO coefficient is  0.33640992D+02

 Symmetrizing basis deriv contribution to polar:
 IMax=3 JMax=2 DiffMx= 0.00D+00
 G2DrvN: will do    13 centers at a time, making    1 passes.
 Calling FoFCou, ICntrl=  3107 FMM=F I1Cent=   0 AccDes= 0.00D+00.
 End of G2Drv F.D. properties file   721 does not exist.
 End of G2Drv F.D. properties file   722 does not exist.
 End of G2Drv F.D. properties file   788 does not exist.
          IDoAtm=111111111111
          Differentiating once with respect to nuclear coordinates.
 Keep R1 ints in memory in canonical form, NReq=47193265.
          There are    39 degrees of freedom in the 1st order CPHF.  IDoFFX=6 NUNeed=     0.
     33 vectors produced by pass  0 Test12= 6.28D-15 2.56D-09 XBig12= 1.44D-01 1.44D-01.
 AX will form    33 AO Fock derivatives at one time.
     33 vectors produced by pass  1 Test12= 6.28D-15 2.56D-09 XBig12= 2.80D-02 6.19D-02.
     33 vectors produced by pass  2 Test12= 6.28D-15 2.56D-09 XBig12= 3.40D-04 4.70D-03.
     33 vectors produced by pass  3 Test12= 6.28D-15 2.56D-09 XBig12= 1.70D-06 2.44D-04.
     33 vectors produced by pass  4 Test12= 6.28D-15 2.56D-09 XBig12= 3.21D-09 9.57D-06.
     29 vectors produced by pass  5 Test12= 6.28D-15 2.56D-09 XBig12= 3.50D-12 2.99D-07.
      4 vectors produced by pass  6 Test12= 6.28D-15 2.56D-09 XBig12= 3.12D-15 7.77D-09.
 InvSVY:  IOpt=1 It=  1 EMax= 2.22D-15
 Solved reduced A of dimension   198 with    33 vectors.
 End of Minotr F.D. properties file   721 does not exist.
 End of Minotr F.D. properties file   722 does not exist.
 End of Minotr F.D. properties file   788 does not exist.

 **********************************************************************

            Population analysis using the SCF Density.

 **********************************************************************

 Alpha  occ. eigenvalues --  -19.26992 -19.18913 -19.12780 -10.32507 -10.31447
 Alpha  occ. eigenvalues --  -10.23903  -1.13022  -1.08229  -0.91653  -0.82105
 Alpha  occ. eigenvalues --   -0.65900  -0.62366  -0.56939  -0.52693  -0.50442
 Alpha  occ. eigenvalues --   -0.49201  -0.45964  -0.44143  -0.40732  -0.39500
 Alpha  occ. eigenvalues --   -0.35537  -0.28974  -0.25833  -0.24939
 Alpha virt. eigenvalues --   -0.11686  -0.06452  -0.03074   0.00597   0.01449
 Alpha virt. eigenvalues --    0.03567   0.04406   0.05659   0.06389   0.07907
 Alpha virt. eigenvalues --    0.08371   0.10098   0.10793   0.11628   0.13835
 Alpha virt. eigenvalues --    0.15831   0.18063   0.18741   0.19305   0.19660
 Alpha virt. eigenvalues --    0.21346   0.22218   0.23193   0.24597   0.24978
 Alpha virt. eigenvalues --    0.26131   0.27087   0.28557   0.29570   0.30023
 Alpha virt. eigenvalues --    0.31009   0.33217   0.34446   0.37362   0.38950
 Alpha virt. eigenvalues --    0.43663   0.57829   0.63079   0.65685   0.66953
 Alpha virt. eigenvalues --    0.68346   0.72696   0.76739   0.79150   0.83405
 Alpha virt. eigenvalues --    0.88455   0.91995   0.94822   0.98001   0.99885
 Alpha virt. eigenvalues --    1.04955   1.06583   1.07350   1.16503   1.18061
 Alpha virt. eigenvalues --    1.20942   1.22262   1.23405   1.23629   1.25237
 Alpha virt. eigenvalues --    1.28128   1.34125   1.39268   1.40989   1.43742
 Alpha virt. eigenvalues --    1.51498   1.53953   1.59967   1.62949   1.64735
 Alpha virt. eigenvalues --    1.69401   1.75576   1.75657   1.78231   1.80551
 Alpha virt. eigenvalues --    1.81755   1.85214   1.86410   1.96043   2.00427
 Alpha virt. eigenvalues --    2.02676   2.06731   2.14083   2.20665   2.23543
 Alpha virt. eigenvalues --    2.33445   2.36510   2.48004   2.50567   2.56371
 Alpha virt. eigenvalues --    2.63583   2.69129   2.74015   2.88692   2.92135
 Alpha virt. eigenvalues --    3.03876   4.00251   4.10916   4.12771   4.18003
 Alpha virt. eigenvalues --    4.28675   4.48725
          Condensed to atoms (all electrons):
               1          2          3          4          5          6
     1  C    5.897353  -0.263430  -0.013501  -0.143056   0.101994   0.008818
     2  C   -0.263430   6.568863  -0.034703  -0.106607  -0.070568  -0.123693
     3  C   -0.013501  -0.034703   4.985491   0.049453   0.001562   0.467826
     4  O   -0.143056  -0.106607   0.049453   8.653087  -0.108467  -0.001232
     5  O    0.101994  -0.070568   0.001562  -0.108467   8.636354  -0.000052
     6  O    0.008818  -0.123693   0.467826  -0.001232  -0.000052   8.062882
     7  H    0.000412   0.000799   0.001740   0.009826   0.160014  -0.000001
     8  H    0.289511  -0.005796  -0.017406  -0.149509   0.035764   0.000121
     9  H    0.349339  -0.083497   0.032134  -0.030762  -0.003714   0.000705
    10  H    0.035324  -0.147871   0.377575  -0.001461   0.000168  -0.058621
    11  H   -0.061932   0.404615  -0.035843  -0.015732   0.010224  -0.001067
    12  H   -0.046488   0.364178  -0.015364   0.009126  -0.001056   0.001654
               7          8          9         10         11         12
     1  C    0.000412   0.289511   0.349339   0.035324  -0.061932  -0.046488
     2  C    0.000799  -0.005796  -0.083497  -0.147871   0.404615   0.364178
     3  C    0.001740  -0.017406   0.032134   0.377575  -0.035843  -0.015364
     4  O    0.009826  -0.149509  -0.030762  -0.001461  -0.015732   0.009126
     5  O    0.160014   0.035764  -0.003714   0.000168   0.010224  -0.001056
     6  O   -0.000001   0.000121   0.000705  -0.058621  -0.001067   0.001654
     7  H    0.396566  -0.001004   0.000038  -0.000001  -0.000433   0.000012
     8  H   -0.001004   0.515599  -0.022413   0.000047   0.002350  -0.003339
     9  H    0.000038  -0.022413   0.530217   0.002563   0.001241   0.002758
    10  H   -0.000001   0.000047   0.002563   0.617817   0.001273   0.003342
    11  H   -0.000433   0.002350   0.001241   0.001273   0.413246  -0.020002
    12  H    0.000012  -0.003339   0.002758   0.003342  -0.020002   0.446753
 Mulliken charges:
               1
     1  C   -0.154344
     2  C   -0.502292
     3  C    0.201037
     4  O   -0.164667
     5  O   -0.762222
     6  O   -0.357341
     7  H    0.432032
     8  H    0.356075
     9  H    0.221391
    10  H    0.169845
    11  H    0.302060
    12  H    0.258425
 Sum of Mulliken charges =  -0.00000
 Mulliken charges with hydrogens summed into heavy atoms:
               1
     1  C    0.067048
     2  C    0.058194
     3  C    0.370882
     4  O    0.191409
     5  O   -0.330190
     6  O   -0.357341
 APT charges:
               1
     1  C   -0.584633
     2  C   -0.633030
     3  C   -0.529886
     4  O   -0.149419
     5  O   -1.088291
     6  O    0.053219
     7  H    0.706133
     8  H    0.491566
     9  H    0.457235
    10  H    0.388703
    11  H    0.421636
    12  H    0.466765
 Sum of APT charges =  -0.00000
 APT charges with hydrogens summed into heavy atoms:
               1
     1  C   -0.127398
     2  C    0.255371
     3  C   -0.141182
     4  O    0.342147
     5  O   -0.382157
     6  O    0.053219
 Electronic spatial extent (au):  <R**2>=            860.3668
 Charge=             -0.0000 electrons
 Dipole moment (field-independent basis, Debye):
    X=             -0.0881    Y=              2.2411    Z=             -0.1248  Tot=              2.2463
 Quadrupole moment (field-independent basis, Debye-Ang):
   XX=            -53.2534   YY=            -34.0333   ZZ=            -34.4635
   XY=              4.4013   XZ=             -6.6810   YZ=              2.1412
 Traceless Quadrupole moment (field-independent basis, Debye-Ang):
   XX=            -12.6700   YY=              6.5501   ZZ=              6.1199
   XY=              4.4013   XZ=             -6.6810   YZ=              2.1412
 Octapole moment (field-independent basis, Debye-Ang**2):
  XXX=             37.8723  YYY=              6.2503  ZZZ=             -0.7594  XYY=              2.6141
  XXY=              4.9822  XXZ=            -10.3451  XZZ=              0.2680  YZZ=              0.5652
  YYZ=             -2.0684  XYZ=              5.8777
 Hexadecapole moment (field-independent basis, Debye-Ang**3):
 XXXX=           -984.4667 YYYY=           -123.1687 ZZZZ=            -74.1412 XXXY=             -3.9328
 XXXZ=            -66.2548 YYYX=             16.2439 YYYZ=              1.4932 ZZZX=             -4.5200
 ZZZY=              1.5607 XXYY=           -157.1089 XXZZ=           -152.0017 YYZZ=            -34.4371
 XXYZ=             14.7351 YYXZ=             -5.4600 ZZXY=              0.3576
 N-N= 2.244111053967D+02 E-N=-1.252966125634D+03  KE= 3.402489536146D+02
  Exact polarizability:   0.000   0.000   0.000   0.000   0.000   0.000
 Approx polarizability: 167.069 -66.732 124.817   4.582  -2.842  63.345
 Calling FoFJK, ICntrl=    100127 FMM=F ISym2X=0 I1Cent= 0 IOpClX= 0 NMat=1 NMatS=1 NMatT=0.
 -------------------------------------------------------------------
 Center     Atomic                   Forces (Hartrees/Bohr)
 Number     Number              X              Y              Z
 -------------------------------------------------------------------
      1        6          -0.000000079   -0.000000204   -0.000000048
      2        6          -0.000000385    0.000000410    0.000000001
      3        6          -0.000000310   -0.000000353    0.000000407
      4        8          -0.000000084    0.000000070   -0.000000152
      5        8           0.000000609    0.000000169   -0.000001326
      6        8           0.000000286   -0.000000304    0.000000799
      7        1          -0.000000517    0.000000592   -0.000000308
      8        1          -0.000000083    0.000000364    0.000000070
      9        1           0.000000196   -0.000000203    0.000000162
     10        1           0.000000479   -0.000000466    0.000000217
     11        1           0.000000234   -0.000000243   -0.000000269
     12        1          -0.000000346    0.000000168    0.000000448
 -------------------------------------------------------------------
 Cartesian Forces:  Max     0.000001326 RMS     0.000000400
 IRC-IRC-IRC-IRC-IRC-IRC-IRC-IRC-IRC-IRC-IRC-IRC-IRC-IRC-IRC-IRC-IRC-IRC
          ******** Start new reaction path calculation ********
 Supplied step size of   0.1500 bohr.
    Integration on MW PES will use step size of   0.1629 sqrt(amu)*bohr.
 Point Number:   0          Path Number:   1
 Calculating another point on the path.
 IRC-IRC-IRC-IRC-IRC-IRC-IRC-IRC-IRC-IRC-IRC-IRC-IRC-IRC-IRC-IRC-IRC-IRC
                          Input orientation:                          
 ---------------------------------------------------------------------
 Center     Atomic      Atomic             Coordinates (Angstroms)
 Number     Number       Type             X           Y           Z
 ---------------------------------------------------------------------
      1          6           0        0.474856    0.710980    0.290963
      2          6           0       -0.552705   -0.136532   -0.386197
      3          6           0       -1.868942   -0.225510    0.355488
      4          8           0        1.718099    0.727707   -0.218682
      5          8           0        2.556524   -0.891023    0.180213
      6          8           0       -2.951767   -0.120699   -0.176627
      7          1           0        3.147124   -0.981799   -0.590248
      8          1           0        1.256224    1.814479   -0.075775
      9          1           0        0.383884    0.916788    1.363168
     10          1           0       -1.793127   -0.413678    1.448782
     11          1           0       -0.090828   -1.143322   -0.403576
     12          1           0       -0.717859    0.160296   -1.427433
 ---------------------------------------------------------------------
                    Distance matrix (angstroms):
                    1          2          3          4          5
     1  C    0.000000
     2  C    1.494224   0.000000
     3  C    2.524790   1.513438   0.000000
     4  O    1.343753   2.435472   3.755684   0.000000
     5  O    2.629072   3.249212   4.478658   1.866108   0.000000
     6  O    3.556976   2.408251   1.211050   4.746495   5.573330
     7  H    3.283756   3.800637   5.160165   2.258890   0.975017
     8  H    1.400979   2.678625   3.756888   1.189464   3.012648
     9  H    1.095562   2.246544   2.719465   2.078012   3.063972
    10  H    2.783729   2.232175   1.111956   4.051162   4.555940
    11  H    2.059325   1.107816   2.140151   2.609052   2.722671
    12  H    2.163032   1.095242   2.156999   2.777936   3.796233
                    6          7          8          9         10
     6  O    0.000000
     7  H    6.173253   0.000000
     8  H    4.632740   3.414580   0.000000
     9  H    3.817580   3.880201   1.907193   0.000000
    10  H    2.017483   5.374615   4.072776   2.552812   0.000000
    11  H    3.046677   3.247348   3.266586   2.755139   2.619434
    12  H    2.575620   4.116231   2.908660   3.094119   3.123821
                   11         12
    11  H    0.000000
    12  H    1.772250   0.000000
 Symmetry turned off by external request.
 Stoichiometry    C3H6O3
 Framework group  C1[X(C3H6O3)]
 Deg. of freedom    30
 Full point group                 C1      NOp   1
 Rotational constants (GHZ):          10.6180334           1.3752226           1.2960224
 Standard basis: 6-31+G(d) (6D, 7F)
   126 basis functions,   216 primitive gaussians,   126 cartesian basis functions
    24 alpha electrons       24 beta electrons
       nuclear repulsion energy       224.3956013427 Hartrees.
 NAtoms=   12 NActive=   12 NUniq=   12 SFac= 1.00D+00 NAtFMM=   60 NAOKFM=F Big=F
 Integral buffers will be    131072 words long.
 Raffenetti 2 integral format.
 Two-electron integral symmetry is turned off.
 One-electron integrals computed using PRISM.
 NBasis=   126 RedAO= T EigKep=  1.10D-04  NBF=   126
 NBsUse=   126 1.00D-06 EigRej= -1.00D+00 NBFU=   126
 Initial guess from the checkpoint file:  "/scratch/bell/zhao922/YARP/paper-example/KHP-network/pp_0/IRC-folder/Gau-71253.chk"
 B after Tr=     0.042815    0.006861    0.006129
         Rot=    1.000000   -0.000183   -0.000014   -0.000198 Ang=  -0.03 deg.
 ExpMin= 4.38D-02 ExpMax= 5.48D+03 ExpMxC= 8.25D+02 IAcc=3 IRadAn=         5 AccDes= 0.00D+00
 Harris functional with IExCor=  402 and IRadAn=       5 diagonalized for initial guess.
 HarFok:  IExCor=  402 AccDes= 0.00D+00 IRadAn=         5 IDoV= 1 UseB2=F ITyADJ=14
 ICtDFT=  3500011 ScaDFX=  1.000000  1.000000  1.000000  1.000000
 FoFCou: FMM=F IPFlag=           0 FMFlag=      100000 FMFlg1=           0
         NFxFlg=           0 DoJE=T BraDBF=F KetDBF=T FulRan=T
         wScrn=  0.000000 ICntrl=       500 IOpCl=  0 I1Cent=   200000004 NGrid=           0
         NMat0=    1 NMatS0=      1 NMatT0=    0 NMatD0=    1 NMtDS0=    0 NMtDT0=    0
 Symmetry not used in FoFCou.
 Keep R1 ints in memory in canonical form, NReq=47237243.
 Requested convergence on RMS density matrix=1.00D-08 within 128 cycles.
 Requested convergence on MAX density matrix=1.00D-06.
 Requested convergence on             energy=1.00D-06.
 No special actions if energy rises.
 EnCoef did     6 forward-backward iterations
 SCF Done:  E(RB3LYP) =  -343.388929062     A.U. after   13 cycles
            NFock= 13  Conv=0.45D-08     -V/T= 2.0093
 DoSCS=F DFT=T ScalE2(SS,OS)=  1.000000  1.000000
 Range of M.O.s used for correlation:     1   126
 NBasis=   126 NAE=    24 NBE=    24 NFC=     0 NFV=     0
 NROrb=    126 NOA=    24 NOB=    24 NVA=   102 NVB=   102

 **** Warning!!: The largest alpha MO coefficient is  0.33937496D+02

 Symmetrizing basis deriv contribution to polar:
 IMax=3 JMax=2 DiffMx= 0.00D+00
 G2DrvN: will do    13 centers at a time, making    1 passes.
 Calling FoFCou, ICntrl=  3107 FMM=F I1Cent=   0 AccDes= 0.00D+00.
 End of G2Drv F.D. properties file   721 does not exist.
 End of G2Drv F.D. properties file   722 does not exist.
 End of G2Drv F.D. properties file   788 does not exist.
          IDoAtm=111111111111
          Differentiating once with respect to nuclear coordinates.
 Keep R1 ints in memory in canonical form, NReq=47193265.
          There are    39 degrees of freedom in the 1st order CPHF.  IDoFFX=6 NUNeed=     0.
     33 vectors produced by pass  0 Test12= 6.28D-15 2.56D-09 XBig12= 1.43D-01 1.29D-01.
 AX will form    33 AO Fock derivatives at one time.
     33 vectors produced by pass  1 Test12= 6.28D-15 2.56D-09 XBig12= 3.64D-02 6.08D-02.
     33 vectors produced by pass  2 Test12= 6.28D-15 2.56D-09 XBig12= 2.97D-04 4.30D-03.
     33 vectors produced by pass  3 Test12= 6.28D-15 2.56D-09 XBig12= 1.55D-06 2.50D-04.
     33 vectors produced by pass  4 Test12= 6.28D-15 2.56D-09 XBig12= 2.83D-09 9.80D-06.
     29 vectors produced by pass  5 Test12= 6.28D-15 2.56D-09 XBig12= 3.05D-12 2.60D-07.
      4 vectors produced by pass  6 Test12= 6.28D-15 2.56D-09 XBig12= 3.07D-15 7.65D-09.
 InvSVY:  IOpt=1 It=  1 EMax= 2.22D-15
 Solved reduced A of dimension   198 with    33 vectors.
 End of Minotr F.D. properties file   721 does not exist.
 End of Minotr F.D. properties file   722 does not exist.
 End of Minotr F.D. properties file   788 does not exist.
 Calling FoFJK, ICntrl=    100127 FMM=F ISym2X=0 I1Cent= 0 IOpClX= 0 NMat=1 NMatS=1 NMatT=0.
 -------------------------------------------------------------------
 Center     Atomic                   Forces (Hartrees/Bohr)
 Number     Number              X              Y              Z
 -------------------------------------------------------------------
      1        6           0.005412357    0.008082077   -0.000821251
      2        6          -0.000379713    0.001229913   -0.000746291
      3        6           0.000066017    0.000203878   -0.000098418
      4        8           0.012608090   -0.015554809    0.001574182
      5        8          -0.004032440    0.004725574   -0.001151114
      6        8          -0.000138184   -0.000039026    0.000050616
      7        1          -0.000360395    0.000882461   -0.000264515
      8        1          -0.013555705    0.001710022    0.000763270
      9        1           0.000368689   -0.001489222    0.000441506
     10        1          -0.000009569   -0.000008144   -0.000003460
     11        1           0.000129043    0.000286292    0.000269082
     12        1          -0.000108190   -0.000029017   -0.000013607
 -------------------------------------------------------------------
 Cartesian Forces:  Max     0.015554809 RMS     0.004508838
 IRC-IRC-IRC-IRC-IRC-IRC-IRC-IRC-IRC-IRC-IRC-IRC-IRC-IRC-IRC-IRC-IRC-IRC
 Pt  1 Step number   1 out of a maximum of 100
 Modified Bulirsch-Stoer Extrapolation Cycles:
    EPS =    0.000010000000000
      PEZero:  N= 2 I= 1 D=  4.24D-04 Err=  1.14D-03
      PEZero:  N= 3 I= 2 D=  4.24D-04 Err=  7.62D-04
      PEZero:  N= 3 I= 1 D=  8.48D-04 Err=  5.49D-08
 Maximum DWI energy   std dev =  0.000005407 at pt    45
 Maximum DWI gradient std dev =  0.006465091 at pt    41
 CORRECTOR INTEGRATION CONVERGENCE:
   Recorrection delta-x convergence threshold:    0.010000
   Delta-x Convergence Met
 Point Number:   1          Path Number:   1
   CHANGE IN THE REACTION COORDINATE =    0.16289
   NET REACTION COORDINATE UP TO THIS POINT =    0.16289
  # OF POINTS ALONG THE PATH =   1
  # OF STEPS =   1

 Calculating another point on the path.
 IRC-IRC-IRC-IRC-IRC-IRC-IRC-IRC-IRC-IRC-IRC-IRC-IRC-IRC-IRC-IRC-IRC-IRC
                          Input orientation:                          
 ---------------------------------------------------------------------
 Center     Atomic      Atomic             Coordinates (Angstroms)
 Number     Number       Type             X           Y           Z
 ---------------------------------------------------------------------
      1          6           0        0.477435    0.714928    0.290538
      2          6           0       -0.552873   -0.135961   -0.386555
      3          6           0       -1.868903   -0.225410    0.355438
      4          8           0        1.722597    0.722063   -0.218151
      5          8           0        2.555095   -0.889307    0.179808
      6          8           0       -2.951815   -0.120713   -0.176607
      7          1           0        3.145047   -0.976791   -0.591725
      8          1           0        1.179144    1.824329   -0.070788
      9          1           0        0.386020    0.908208    1.365835
     10          1           0       -1.793184   -0.413725    1.448761
     11          1           0       -0.090203   -1.141818   -0.402078
     12          1           0       -0.718514    0.160142   -1.427484
 ---------------------------------------------------------------------
                    Distance matrix (angstroms):
                    1          2          3          4          5
     1  C    0.000000
     2  C    1.497998   0.000000
     3  C    2.528586   1.513436   0.000000
     4  O    1.345081   2.437689   3.758401   0.000000
     5  O    2.627262   3.247732   4.476982   1.856863   0.000000
     6  O    3.560376   2.408160   1.211088   4.749961   5.571699
     7  H    3.279703   3.797855   5.157653   2.247004   0.975171
     8  H    1.361515   2.634829   3.697795   1.237758   3.052844
     9  H    1.096347   2.245591   2.718578   2.080889   3.056569
    10  H    2.787660   2.232467   1.112003   4.053311   4.554553
    11  H    2.061416   1.107273   2.139488   2.606555   2.720286
    12  H    2.165567   1.094828   2.156585   2.781594   3.794898
                    6          7          8          9         10
     6  O    0.000000
     7  H    6.170650   0.000000
     8  H    4.567188   3.461563   0.000000
     9  H    3.818239   3.872660   1.879417   0.000000
    10  H    2.017450   5.372779   4.019035   2.550159   0.000000
    11  H    3.046690   3.245003   3.243304   2.748620   2.618372
    12  H    2.575114   4.113176   2.865527   3.095518   3.123624
                   11         12
    11  H    0.000000
    12  H    1.772381   0.000000
 Symmetry turned off by external request.
 Stoichiometry    C3H6O3
 Framework group  C1[X(C3H6O3)]
 Deg. of freedom    30
 Full point group                 C1      NOp   1
 Rotational constants (GHZ):          10.6419289           1.3753308           1.2965089
 Standard basis: 6-31+G(d) (6D, 7F)
   126 basis functions,   216 primitive gaussians,   126 cartesian basis functions
    24 alpha electrons       24 beta electrons
       nuclear repulsion energy       224.3850958206 Hartrees.
 NAtoms=   12 NActive=   12 NUniq=   12 SFac= 1.00D+00 NAtFMM=   60 NAOKFM=F Big=F
 Integral buffers will be    131072 words long.
 Raffenetti 2 integral format.
 Two-electron integral symmetry is turned off.
 One-electron integrals computed using PRISM.
 NBasis=   126 RedAO= T EigKep=  1.12D-04  NBF=   126
 NBsUse=   126 1.00D-06 EigRej= -1.00D+00 NBFU=   126
 Initial guess from the checkpoint file:  "/scratch/bell/zhao922/YARP/paper-example/KHP-network/pp_0/IRC-folder/Gau-71253.chk"
 B after Tr=    -0.001503    0.000134    0.000146
         Rot=    1.000000   -0.000222   -0.000011   -0.000194 Ang=  -0.03 deg.
 ExpMin= 4.38D-02 ExpMax= 5.48D+03 ExpMxC= 8.25D+02 IAcc=3 IRadAn=         5 AccDes= 0.00D+00
 Harris functional with IExCor=  402 and IRadAn=       5 diagonalized for initial guess.
 HarFok:  IExCor=  402 AccDes= 0.00D+00 IRadAn=         5 IDoV= 1 UseB2=F ITyADJ=14
 ICtDFT=  3500011 ScaDFX=  1.000000  1.000000  1.000000  1.000000
 FoFCou: FMM=F IPFlag=           0 FMFlag=      100000 FMFlg1=           0
         NFxFlg=           0 DoJE=T BraDBF=F KetDBF=T FulRan=T
         wScrn=  0.000000 ICntrl=       500 IOpCl=  0 I1Cent=   200000004 NGrid=           0
         NMat0=    1 NMatS0=      1 NMatT0=    0 NMatD0=    1 NMtDS0=    0 NMtDT0=    0
 Symmetry not used in FoFCou.
 Keep R1 ints in memory in canonical form, NReq=47237243.
 Requested convergence on RMS density matrix=1.00D-08 within 128 cycles.
 Requested convergence on MAX density matrix=1.00D-06.
 Requested convergence on             energy=1.00D-06.
 No special actions if energy rises.
 EnCoef did     6 forward-backward iterations
 SCF Done:  E(RB3LYP) =  -343.392596397     A.U. after   13 cycles
            NFock= 13  Conv=0.38D-08     -V/T= 2.0094
 DoSCS=F DFT=T ScalE2(SS,OS)=  1.000000  1.000000
 Range of M.O.s used for correlation:     1   126
 NBasis=   126 NAE=    24 NBE=    24 NFC=     0 NFV=     0
 NROrb=    126 NOA=    24 NOB=    24 NVA=   102 NVB=   102

 **** Warning!!: The largest alpha MO coefficient is  0.33805325D+02

 Symmetrizing basis deriv contribution to polar:
 IMax=3 JMax=2 DiffMx= 0.00D+00
 G2DrvN: will do    13 centers at a time, making    1 passes.
 Calling FoFCou, ICntrl=  3107 FMM=F I1Cent=   0 AccDes= 0.00D+00.
 End of G2Drv F.D. properties file   721 does not exist.
 End of G2Drv F.D. properties file   722 does not exist.
 End of G2Drv F.D. properties file   788 does not exist.
          IDoAtm=111111111111
          Differentiating once with respect to nuclear coordinates.
 Keep R1 ints in memory in canonical form, NReq=47193265.
          There are    39 degrees of freedom in the 1st order CPHF.  IDoFFX=6 NUNeed=     0.
     33 vectors produced by pass  0 Test12= 6.28D-15 2.56D-09 XBig12= 1.47D-01 1.74D-01.
 AX will form    33 AO Fock derivatives at one time.
     33 vectors produced by pass  1 Test12= 6.28D-15 2.56D-09 XBig12= 3.80D-02 5.49D-02.
     33 vectors produced by pass  2 Test12= 6.28D-15 2.56D-09 XBig12= 3.06D-04 3.81D-03.
     33 vectors produced by pass  3 Test12= 6.28D-15 2.56D-09 XBig12= 1.50D-06 2.53D-04.
     33 vectors produced by pass  4 Test12= 6.28D-15 2.56D-09 XBig12= 2.92D-09 8.71D-06.
     29 vectors produced by pass  5 Test12= 6.28D-15 2.56D-09 XBig12= 3.41D-12 3.24D-07.
      4 vectors produced by pass  6 Test12= 6.28D-15 2.56D-09 XBig12= 3.32D-15 9.53D-09.
 InvSVY:  IOpt=1 It=  1 EMax= 2.44D-15
 Solved reduced A of dimension   198 with    33 vectors.
 End of Minotr F.D. properties file   721 does not exist.
 End of Minotr F.D. properties file   722 does not exist.
 End of Minotr F.D. properties file   788 does not exist.
 Calling FoFJK, ICntrl=    100127 FMM=F ISym2X=0 I1Cent= 0 IOpClX= 0 NMat=1 NMatS=1 NMatT=0.
 -------------------------------------------------------------------
 Center     Atomic                   Forces (Hartrees/Bohr)
 Number     Number              X              Y              Z
 -------------------------------------------------------------------
      1        6           0.010627500    0.016841739   -0.001818498
      2        6          -0.000612081    0.002315153   -0.001439135
      3        6           0.000208165    0.000418220   -0.000228045
      4        8           0.025045378   -0.031332934    0.002939067
      5        8          -0.008060468    0.009807398   -0.002233296
      6        8          -0.000288148   -0.000080868    0.000110130
      7        1          -0.000735150    0.001782588   -0.000537475
      8        1          -0.026859925    0.002897036    0.001822471
      9        1           0.000779215   -0.003087253    0.000904522
     10        1          -0.000019708   -0.000016053   -0.000006447
     11        1           0.000153303    0.000500305    0.000510912
     12        1          -0.000238082   -0.000045330   -0.000024206
 -------------------------------------------------------------------
 Cartesian Forces:  Max     0.031332934 RMS     0.009037893
 IRC-IRC-IRC-IRC-IRC-IRC-IRC-IRC-IRC-IRC-IRC-IRC-IRC-IRC-IRC-IRC-IRC-IRC
 Pt  2 Step number   1 out of a maximum of 100
 Modified Bulirsch-Stoer Extrapolation Cycles:
    EPS =    0.000010000000000
      PEZero:  N= 2 I= 1 D=  8.48D-04 Err=  1.82D-05
      PEZero:  N= 3 I= 2 D=  8.48D-04 Err=  1.21D-05
      PEZero:  N= 3 I= 1 D=  1.70D-03 Err=  5.20D-08
 Maximum DWI energy   std dev =  0.000006954 at pt    26
 Maximum DWI gradient std dev =  0.005757231 at pt    24
 CORRECTOR INTEGRATION CONVERGENCE:
   Recorrection delta-x convergence threshold:    0.010000
   Delta-x Convergence Met
 Point Number:   2          Path Number:   1
   CHANGE IN THE REACTION COORDINATE =    0.16284
   NET REACTION COORDINATE UP TO THIS POINT =    0.32573
  # OF POINTS ALONG THE PATH =   2
  # OF STEPS =   1

 Calculating another point on the path.
 IRC-IRC-IRC-IRC-IRC-IRC-IRC-IRC-IRC-IRC-IRC-IRC-IRC-IRC-IRC-IRC-IRC-IRC
                          Input orientation:                          
 ---------------------------------------------------------------------
 Center     Atomic      Atomic             Coordinates (Angstroms)
 Number     Number       Type             X           Y           Z
 ---------------------------------------------------------------------
      1          6           0        0.479978    0.719072    0.290080
      2          6           0       -0.553002   -0.135420   -0.386897
      3          6           0       -1.868843   -0.225308    0.355379
      4          8           0        1.727130    0.716351   -0.217633
      5          8           0        2.553630   -0.887488    0.179406
      6          8           0       -2.951869   -0.120728   -0.176586
      7          1           0        3.142899   -0.971623   -0.593274
      8          1           0        1.102203    1.832065   -0.065183
      9          1           0        0.388328    0.899146    1.368488
     10          1           0       -1.793240   -0.413772    1.448741
     11          1           0       -0.089935   -1.140481   -0.400651
     12          1           0       -0.719228    0.160028   -1.427531
 ---------------------------------------------------------------------
                    Distance matrix (angstroms):
                    1          2          3          4          5
     1  C    0.000000
     2  C    1.501833   0.000000
     3  C    2.532405   1.513438   0.000000
     4  O    1.346540   2.439911   3.761129   0.000000
     5  O    2.625512   3.246146   4.475234   1.847442   0.000000
     6  O    3.563792   2.408114   1.211143   4.753464   5.570024
     7  H    3.275654   3.794932   5.155045   2.234896   0.975372
     8  H    1.323681   2.591178   3.638238   1.287864   3.092318
     9  H    1.097174   2.244506   2.717648   2.083647   3.048689
    10  H    2.791657   2.232765   1.112060   4.055489   4.553119
    11  H    2.063940   1.106692   2.138607   2.604429   2.718254
    12  H    2.168136   1.094458   2.156123   2.785322   3.793565
                    6          7          8          9         10
     6  O    0.000000
     7  H    6.167969   0.000000
     8  H    4.501257   3.507703   0.000000
     9  H    3.818942   3.864705   1.853475   0.000000
    10  H    2.017421   5.370893   3.964763   2.547437   0.000000
    11  H    3.046435   3.242966   3.220212   2.742019   2.617176
    12  H    2.574563   4.110065   2.822997   3.096886   3.123411
                   11         12
    11  H    0.000000
    12  H    1.772517   0.000000
 Symmetry turned off by external request.
 Stoichiometry    C3H6O3
 Framework group  C1[X(C3H6O3)]
 Deg. of freedom    30
 Full point group                 C1      NOp   1
 Rotational constants (GHZ):          10.6677276           1.3753998           1.2969861
 Standard basis: 6-31+G(d) (6D, 7F)
   126 basis functions,   216 primitive gaussians,   126 cartesian basis functions
    24 alpha electrons       24 beta electrons
       nuclear repulsion energy       224.3838334071 Hartrees.
 NAtoms=   12 NActive=   12 NUniq=   12 SFac= 1.00D+00 NAtFMM=   60 NAOKFM=F Big=F
 Integral buffers will be    131072 words long.
 Raffenetti 2 integral format.
 Two-electron integral symmetry is turned off.
 One-electron integrals computed using PRISM.
 NBasis=   126 RedAO= T EigKep=  1.13D-04  NBF=   126
 NBsUse=   126 1.00D-06 EigRej= -1.00D+00 NBFU=   126
 Initial guess from the checkpoint file:  "/scratch/bell/zhao922/YARP/paper-example/KHP-network/pp_0/IRC-folder/Gau-71253.chk"
 B after Tr=    -0.001507    0.000085    0.000155
         Rot=    1.000000   -0.000237   -0.000011   -0.000191 Ang=  -0.03 deg.
 ExpMin= 4.38D-02 ExpMax= 5.48D+03 ExpMxC= 8.25D+02 IAcc=3 IRadAn=         5 AccDes= 0.00D+00
 Harris functional with IExCor=  402 and IRadAn=       5 diagonalized for initial guess.
 HarFok:  IExCor=  402 AccDes= 0.00D+00 IRadAn=         5 IDoV= 1 UseB2=F ITyADJ=14
 ICtDFT=  3500011 ScaDFX=  1.000000  1.000000  1.000000  1.000000
 FoFCou: FMM=F IPFlag=           0 FMFlag=      100000 FMFlg1=           0
         NFxFlg=           0 DoJE=T BraDBF=F KetDBF=T FulRan=T
         wScrn=  0.000000 ICntrl=       500 IOpCl=  0 I1Cent=   200000004 NGrid=           0
         NMat0=    1 NMatS0=      1 NMatT0=    0 NMatD0=    1 NMtDS0=    0 NMtDT0=    0
 Symmetry not used in FoFCou.
 Keep R1 ints in memory in canonical form, NReq=47237243.
 Requested convergence on RMS density matrix=1.00D-08 within 128 cycles.
 Requested convergence on MAX density matrix=1.00D-06.
 Requested convergence on             energy=1.00D-06.
 No special actions if energy rises.
 SCF Done:  E(RB3LYP) =  -343.398518873     A.U. after   13 cycles
            NFock= 13  Conv=0.32D-08     -V/T= 2.0094
 DoSCS=F DFT=T ScalE2(SS,OS)=  1.000000  1.000000
 Range of M.O.s used for correlation:     1   126
 NBasis=   126 NAE=    24 NBE=    24 NFC=     0 NFV=     0
 NROrb=    126 NOA=    24 NOB=    24 NVA=   102 NVB=   102

 **** Warning!!: The largest alpha MO coefficient is  0.33433759D+02

 Symmetrizing basis deriv contribution to polar:
 IMax=3 JMax=2 DiffMx= 0.00D+00
 G2DrvN: will do    13 centers at a time, making    1 passes.
 Calling FoFCou, ICntrl=  3107 FMM=F I1Cent=   0 AccDes= 0.00D+00.
 End of G2Drv F.D. properties file   721 does not exist.
 End of G2Drv F.D. properties file   722 does not exist.
 End of G2Drv F.D. properties file   788 does not exist.
          IDoAtm=111111111111
          Differentiating once with respect to nuclear coordinates.
 Keep R1 ints in memory in canonical form, NReq=47193265.
          There are    39 degrees of freedom in the 1st order CPHF.  IDoFFX=6 NUNeed=     0.
     33 vectors produced by pass  0 Test12= 6.28D-15 2.56D-09 XBig12= 1.50D-01 1.85D-01.
 AX will form    33 AO Fock derivatives at one time.
     33 vectors produced by pass  1 Test12= 6.28D-15 2.56D-09 XBig12= 3.44D-02 6.50D-02.
     33 vectors produced by pass  2 Test12= 6.28D-15 2.56D-09 XBig12= 3.55D-04 3.32D-03.
     33 vectors produced by pass  3 Test12= 6.28D-15 2.56D-09 XBig12= 1.75D-06 2.49D-04.
     33 vectors produced by pass  4 Test12= 6.28D-15 2.56D-09 XBig12= 3.12D-09 8.40D-06.
     28 vectors produced by pass  5 Test12= 6.28D-15 2.56D-09 XBig12= 3.77D-12 3.29D-07.
      4 vectors produced by pass  6 Test12= 6.28D-15 2.56D-09 XBig12= 3.50D-15 1.03D-08.
 InvSVY:  IOpt=1 It=  1 EMax= 2.00D-15
 Solved reduced A of dimension   197 with    33 vectors.
 End of Minotr F.D. properties file   721 does not exist.
 End of Minotr F.D. properties file   722 does not exist.
 End of Minotr F.D. properties file   788 does not exist.
 Calling FoFJK, ICntrl=    100127 FMM=F ISym2X=0 I1Cent= 0 IOpClX= 0 NMat=1 NMatS=1 NMatT=0.
 -------------------------------------------------------------------
 Center     Atomic                   Forces (Hartrees/Bohr)
 Number     Number              X              Y              Z
 -------------------------------------------------------------------
      1        6           0.014784472    0.025178850   -0.002784803
      2        6          -0.000613548    0.003108638   -0.001946407
      3        6           0.000429257    0.000615147   -0.000385134
      4        8           0.036070737   -0.045368492    0.004052102
      5        8          -0.011871470    0.014961239   -0.003162562
      6        8          -0.000455800   -0.000117344    0.000170874
      7        1          -0.001098967    0.002643448   -0.000801881
      8        1          -0.038094707    0.003096955    0.002915511
      9        1           0.001216381   -0.004664604    0.001291201
     10        1          -0.000026561   -0.000024330   -0.000009298
     11        1           0.000032165    0.000614087    0.000689146
     12        1          -0.000371960   -0.000043595   -0.000028749
 -------------------------------------------------------------------
 Cartesian Forces:  Max     0.045368492 RMS     0.013048763
 IRC-IRC-IRC-IRC-IRC-IRC-IRC-IRC-IRC-IRC-IRC-IRC-IRC-IRC-IRC-IRC-IRC-IRC
 Pt  3 Step number   1 out of a maximum of 100
 Modified Bulirsch-Stoer Extrapolation Cycles:
    EPS =    0.000010000000000
      PEZero:  N= 2 I= 1 D=  8.48D-04 Err=  2.56D-05
      PEZero:  N= 3 I= 2 D=  8.48D-04 Err=  1.71D-05
      PEZero:  N= 3 I= 1 D=  1.70D-03 Err=  5.00D-08
 Maximum DWI energy   std dev =  0.000012361 at pt    28
 Maximum DWI gradient std dev =  0.003429581 at pt    12
 CORRECTOR INTEGRATION CONVERGENCE:
   Recorrection delta-x convergence threshold:    0.010000
   Delta-x Convergence Met
 Point Number:   3          Path Number:   1
   CHANGE IN THE REACTION COORDINATE =    0.16285
   NET REACTION COORDINATE UP TO THIS POINT =    0.48858
  # OF POINTS ALONG THE PATH =   3
  # OF STEPS =   1

 Calculating another point on the path.
 IRC-IRC-IRC-IRC-IRC-IRC-IRC-IRC-IRC-IRC-IRC-IRC-IRC-IRC-IRC-IRC-IRC-IRC
                          Input orientation:                          
 ---------------------------------------------------------------------
 Center     Atomic      Atomic             Coordinates (Angstroms)
 Number     Number       Type             X           Y           Z
 ---------------------------------------------------------------------
      1          6           0        0.482437    0.723422    0.289596
      2          6           0       -0.553083   -0.134908   -0.387218
      3          6           0       -1.868759   -0.225201    0.355308
      4          8           0        1.731756    0.710530   -0.217123
      5          8           0        2.552086   -0.885510    0.179003
      6          8           0       -2.951930   -0.120743   -0.176563
      7          1           0        3.140611   -0.966156   -0.594925
      8          1           0        1.025603    1.837351   -0.059081
      9          1           0        0.390909    0.889445    1.371128
     10          1           0       -1.793291   -0.413823    1.448720
     11          1           0       -0.090056   -1.139341   -0.399298
     12          1           0       -0.720011    0.159957   -1.427573
 ---------------------------------------------------------------------
                    Distance matrix (angstroms):
                    1          2          3          4          5
     1  C    0.000000
     2  C    1.505692   0.000000
     3  C    2.536203   1.513440   0.000000
     4  O    1.348231   2.442168   3.763905   0.000000
     5  O    2.623802   3.244393   4.473362   1.837716   0.000000
     6  O    3.567183   2.408120   1.211221   4.757055   5.568257
     7  H    3.271535   3.791767   5.152257   2.222360   0.975617
     8  H    1.287418   2.547495   3.578152   1.339162   3.130624
     9  H    1.098022   2.243257   2.716694   2.086246   3.040118
    10  H    2.795681   2.233065   1.112126   4.057729   4.551591
    11  H    2.066932   1.106087   2.137491   2.602731   2.716575
    12  H    2.170724   1.094143   2.155605   2.789172   3.792190
                    6          7          8          9         10
     6  O    0.000000
     7  H    6.165128   0.000000
     8  H    4.434942   3.552470   0.000000
     9  H    3.819738   3.856097   1.829442   0.000000
    10  H    2.017396   5.368887   3.909913   2.544653   0.000000
    11  H    3.045895   3.241214   3.197052   2.735272   2.615829
    12  H    2.573962   4.106804   2.780933   3.098228   3.123174
                   11         12
    11  H    0.000000
    12  H    1.772673   0.000000
 Symmetry turned off by external request.
 Stoichiometry    C3H6O3
 Framework group  C1[X(C3H6O3)]
 Deg. of freedom    30
 Full point group                 C1      NOp   1
 Rotational constants (GHZ):          10.6963819           1.3754331           1.2974704
 Standard basis: 6-31+G(d) (6D, 7F)
   126 basis functions,   216 primitive gaussians,   126 cartesian basis functions
    24 alpha electrons       24 beta electrons
       nuclear repulsion energy       224.3942821061 Hartrees.
 NAtoms=   12 NActive=   12 NUniq=   12 SFac= 1.00D+00 NAtFMM=   60 NAOKFM=F Big=F
 Integral buffers will be    131072 words long.
 Raffenetti 2 integral format.
 Two-electron integral symmetry is turned off.
 One-electron integrals computed using PRISM.
 NBasis=   126 RedAO= T EigKep=  1.14D-04  NBF=   126
 NBsUse=   126 1.00D-06 EigRej= -1.00D+00 NBFU=   126
 Initial guess from the checkpoint file:  "/scratch/bell/zhao922/YARP/paper-example/KHP-network/pp_0/IRC-folder/Gau-71253.chk"
 B after Tr=    -0.001506    0.000028    0.000161
         Rot=    1.000000   -0.000254   -0.000011   -0.000187 Ang=  -0.04 deg.
 ExpMin= 4.38D-02 ExpMax= 5.48D+03 ExpMxC= 8.25D+02 IAcc=3 IRadAn=         5 AccDes= 0.00D+00
 Harris functional with IExCor=  402 and IRadAn=       5 diagonalized for initial guess.
 HarFok:  IExCor=  402 AccDes= 0.00D+00 IRadAn=         5 IDoV= 1 UseB2=F ITyADJ=14
 ICtDFT=  3500011 ScaDFX=  1.000000  1.000000  1.000000  1.000000
 FoFCou: FMM=F IPFlag=           0 FMFlag=      100000 FMFlg1=           0
         NFxFlg=           0 DoJE=T BraDBF=F KetDBF=T FulRan=T
         wScrn=  0.000000 ICntrl=       500 IOpCl=  0 I1Cent=   200000004 NGrid=           0
         NMat0=    1 NMatS0=      1 NMatT0=    0 NMatD0=    1 NMtDS0=    0 NMtDT0=    0
 Symmetry not used in FoFCou.
 Keep R1 ints in memory in canonical form, NReq=47237243.
 Requested convergence on RMS density matrix=1.00D-08 within 128 cycles.
 Requested convergence on MAX density matrix=1.00D-06.
 Requested convergence on             energy=1.00D-06.
 No special actions if energy rises.
 SCF Done:  E(RB3LYP) =  -343.406228801     A.U. after   13 cycles
            NFock= 13  Conv=0.30D-08     -V/T= 2.0095
 DoSCS=F DFT=T ScalE2(SS,OS)=  1.000000  1.000000
 Range of M.O.s used for correlation:     1   126
 NBasis=   126 NAE=    24 NBE=    24 NFC=     0 NFV=     0
 NROrb=    126 NOA=    24 NOB=    24 NVA=   102 NVB=   102

 **** Warning!!: The largest alpha MO coefficient is  0.32851936D+02

 Symmetrizing basis deriv contribution to polar:
 IMax=3 JMax=2 DiffMx= 0.00D+00
 G2DrvN: will do    13 centers at a time, making    1 passes.
 Calling FoFCou, ICntrl=  3107 FMM=F I1Cent=   0 AccDes= 0.00D+00.
 End of G2Drv F.D. properties file   721 does not exist.
 End of G2Drv F.D. properties file   722 does not exist.
 End of G2Drv F.D. properties file   788 does not exist.
          IDoAtm=111111111111
          Differentiating once with respect to nuclear coordinates.
 Keep R1 ints in memory in canonical form, NReq=47193265.
          There are    39 degrees of freedom in the 1st order CPHF.  IDoFFX=6 NUNeed=     0.
     33 vectors produced by pass  0 Test12= 6.28D-15 2.56D-09 XBig12= 1.51D-01 1.72D-01.
 AX will form    33 AO Fock derivatives at one time.
     33 vectors produced by pass  1 Test12= 6.28D-15 2.56D-09 XBig12= 3.86D-02 6.23D-02.
     33 vectors produced by pass  2 Test12= 6.28D-15 2.56D-09 XBig12= 4.23D-04 3.38D-03.
     33 vectors produced by pass  3 Test12= 6.28D-15 2.56D-09 XBig12= 1.92D-06 2.35D-04.
     33 vectors produced by pass  4 Test12= 6.28D-15 2.56D-09 XBig12= 4.09D-09 9.57D-06.
     28 vectors produced by pass  5 Test12= 6.28D-15 2.56D-09 XBig12= 4.60D-12 2.91D-07.
      4 vectors produced by pass  6 Test12= 6.28D-15 2.56D-09 XBig12= 3.87D-15 9.12D-09.
 InvSVY:  IOpt=1 It=  1 EMax= 2.66D-15
 Solved reduced A of dimension   197 with    33 vectors.
 End of Minotr F.D. properties file   721 does not exist.
 End of Minotr F.D. properties file   722 does not exist.
 End of Minotr F.D. properties file   788 does not exist.
 Calling FoFJK, ICntrl=    100127 FMM=F ISym2X=0 I1Cent= 0 IOpClX= 0 NMat=1 NMatS=1 NMatT=0.
 -------------------------------------------------------------------
 Center     Atomic                   Forces (Hartrees/Bohr)
 Number     Number              X              Y              Z
 -------------------------------------------------------------------
      1        6           0.017195330    0.031987916   -0.003509526
      2        6          -0.000389551    0.003593700   -0.002184391
      3        6           0.000710676    0.000786601   -0.000567116
      4        8           0.045049786   -0.056469747    0.004872488
      5        8          -0.015383387    0.019977582   -0.003901163
      6        8          -0.000631192   -0.000143872    0.000233030
      7        1          -0.001444119    0.003436750   -0.001041227
      8        1          -0.046062394    0.002369064    0.003784434
      9        1           0.001672736   -0.006098846    0.001562057
     10        1          -0.000028809   -0.000033162   -0.000013703
     11        1          -0.000193740    0.000620798    0.000795194
     12        1          -0.000495336   -0.000026783   -0.000030078
 -------------------------------------------------------------------
 Cartesian Forces:  Max     0.056469747 RMS     0.016197055
 IRC-IRC-IRC-IRC-IRC-IRC-IRC-IRC-IRC-IRC-IRC-IRC-IRC-IRC-IRC-IRC-IRC-IRC
 Pt  4 Step number   1 out of a maximum of 100
 Modified Bulirsch-Stoer Extrapolation Cycles:
    EPS =    0.000010000000000
      PEZero:  N= 2 I= 1 D=  8.48D-04 Err=  2.87D-05
      PEZero:  N= 3 I= 2 D=  8.48D-04 Err=  1.91D-05
      PEZero:  N= 3 I= 1 D=  1.70D-03 Err=  5.41D-08
 Maximum DWI energy   std dev =  0.000014598 at pt    19
 Maximum DWI gradient std dev =  0.002361726 at pt    35
 CORRECTOR INTEGRATION CONVERGENCE:
   Recorrection delta-x convergence threshold:    0.010000
   Delta-x Convergence Met
 Point Number:   4          Path Number:   1
   CHANGE IN THE REACTION COORDINATE =    0.16285
   NET REACTION COORDINATE UP TO THIS POINT =    0.65143
  # OF POINTS ALONG THE PATH =   4
  # OF STEPS =   1

 Calculating another point on the path.
 IRC-IRC-IRC-IRC-IRC-IRC-IRC-IRC-IRC-IRC-IRC-IRC-IRC-IRC-IRC-IRC-IRC-IRC
                          Input orientation:                          
 ---------------------------------------------------------------------
 Center     Atomic      Atomic             Coordinates (Angstroms)
 Number     Number       Type             X           Y           Z
 ---------------------------------------------------------------------
      1          6           0        0.484759    0.727949    0.289103
      2          6           0       -0.553112   -0.134420   -0.387508
      3          6           0       -1.868647   -0.225088    0.355221
      4          8           0        1.736539    0.704554   -0.216615
      5          8           0        2.550417   -0.883312    0.178590
      6          8           0       -2.952000   -0.120758   -0.176537
      7          1           0        3.138105   -0.960238   -0.596706
      8          1           0        0.949610    1.840230   -0.052702
      9          1           0        0.393863    0.878960    1.373739
     10          1           0       -1.793335   -0.413882    1.448693
     11          1           0       -0.090568   -1.138418   -0.398015
     12          1           0       -0.720866    0.159931   -1.427608
 ---------------------------------------------------------------------
                    Distance matrix (angstroms):
                    1          2          3          4          5
     1  C    0.000000
     2  C    1.509522   0.000000
     3  C    2.539916   1.513440   0.000000
     4  O    1.350278   2.444500   3.766775   0.000000
     5  O    2.622083   3.242406   4.471307   1.827540   0.000000
     6  O    3.570495   2.408186   1.211323   4.760792   5.566345
     7  H    3.267243   3.788248   5.149192   2.209161   0.975899
     8  H    1.253031   2.503899   3.517742   1.391361   3.167611
     9  H    1.098864   2.241806   2.715742   2.088641   3.030629
    10  H    2.799668   2.233358   1.112204   4.060069   4.549913
    11  H    2.070376   1.105472   2.136141   2.601494   2.715208
    12  H    2.173309   1.093888   2.155022   2.793198   3.790715
                    6          7          8          9         10
     6  O    0.000000
     7  H    6.162033   0.000000
     8  H    4.368451   3.595563   0.000000
     9  H    3.820680   3.846579   1.807658   0.000000
    10  H    2.017374   5.366681   3.854732   2.541829   0.000000
    11  H    3.045074   3.239685   3.173887   2.728296   2.614325
    12  H    2.573310   4.103272   2.739390   3.099543   3.122909
                   11         12
    11  H    0.000000
    12  H    1.772865   0.000000
 Symmetry turned off by external request.
 Stoichiometry    C3H6O3
 Framework group  C1[X(C3H6O3)]
 Deg. of freedom    30
 Full point group                 C1      NOp   1
 Rotational constants (GHZ):          10.7287345           1.3754351           1.2979766
 Standard basis: 6-31+G(d) (6D, 7F)
   126 basis functions,   216 primitive gaussians,   126 cartesian basis functions
    24 alpha electrons       24 beta electrons
       nuclear repulsion energy       224.4170312010 Hartrees.
 NAtoms=   12 NActive=   12 NUniq=   12 SFac= 1.00D+00 NAtFMM=   60 NAOKFM=F Big=F
 Integral buffers will be    131072 words long.
 Raffenetti 2 integral format.
 Two-electron integral symmetry is turned off.
 One-electron integrals computed using PRISM.
 NBasis=   126 RedAO= T EigKep=  1.15D-04  NBF=   126
 NBsUse=   126 1.00D-06 EigRej= -1.00D+00 NBFU=   126
 Initial guess from the checkpoint file:  "/scratch/bell/zhao922/YARP/paper-example/KHP-network/pp_0/IRC-folder/Gau-71253.chk"
 B after Tr=    -0.001500   -0.000027    0.000162
         Rot=    1.000000   -0.000270   -0.000012   -0.000183 Ang=  -0.04 deg.
 ExpMin= 4.38D-02 ExpMax= 5.48D+03 ExpMxC= 8.25D+02 IAcc=3 IRadAn=         5 AccDes= 0.00D+00
 Harris functional with IExCor=  402 and IRadAn=       5 diagonalized for initial guess.
 HarFok:  IExCor=  402 AccDes= 0.00D+00 IRadAn=         5 IDoV= 1 UseB2=F ITyADJ=14
 ICtDFT=  3500011 ScaDFX=  1.000000  1.000000  1.000000  1.000000
 FoFCou: FMM=F IPFlag=           0 FMFlag=      100000 FMFlg1=           0
         NFxFlg=           0 DoJE=T BraDBF=F KetDBF=T FulRan=T
         wScrn=  0.000000 ICntrl=       500 IOpCl=  0 I1Cent=   200000004 NGrid=           0
         NMat0=    1 NMatS0=      1 NMatT0=    0 NMatD0=    1 NMtDS0=    0 NMtDT0=    0
 Symmetry not used in FoFCou.
 Keep R1 ints in memory in canonical form, NReq=47237243.
 Requested convergence on RMS density matrix=1.00D-08 within 128 cycles.
 Requested convergence on MAX density matrix=1.00D-06.
 Requested convergence on             energy=1.00D-06.
 No special actions if energy rises.
 SCF Done:  E(RB3LYP) =  -343.415123402     A.U. after   12 cycles
            NFock= 12  Conv=0.78D-08     -V/T= 2.0095
 DoSCS=F DFT=T ScalE2(SS,OS)=  1.000000  1.000000
 Range of M.O.s used for correlation:     1   126
 NBasis=   126 NAE=    24 NBE=    24 NFC=     0 NFV=     0
 NROrb=    126 NOA=    24 NOB=    24 NVA=   102 NVB=   102

 **** Warning!!: The largest alpha MO coefficient is  0.32034016D+02

 Symmetrizing basis deriv contribution to polar:
 IMax=3 JMax=2 DiffMx= 0.00D+00
 G2DrvN: will do    13 centers at a time, making    1 passes.
 Calling FoFCou, ICntrl=  3107 FMM=F I1Cent=   0 AccDes= 0.00D+00.
 End of G2Drv F.D. properties file   721 does not exist.
 End of G2Drv F.D. properties file   722 does not exist.
 End of G2Drv F.D. properties file   788 does not exist.
          IDoAtm=111111111111
          Differentiating once with respect to nuclear coordinates.
 Keep R1 ints in memory in canonical form, NReq=47193265.
          There are    39 degrees of freedom in the 1st order CPHF.  IDoFFX=6 NUNeed=     0.
     33 vectors produced by pass  0 Test12= 6.28D-15 2.56D-09 XBig12= 1.51D-01 1.75D-01.
 AX will form    33 AO Fock derivatives at one time.
     33 vectors produced by pass  1 Test12= 6.28D-15 2.56D-09 XBig12= 4.65D-02 6.77D-02.
     33 vectors produced by pass  2 Test12= 6.28D-15 2.56D-09 XBig12= 4.95D-04 3.88D-03.
     33 vectors produced by pass  3 Test12= 6.28D-15 2.56D-09 XBig12= 2.29D-06 2.37D-04.
     33 vectors produced by pass  4 Test12= 6.28D-15 2.56D-09 XBig12= 4.89D-09 1.06D-05.
     28 vectors produced by pass  5 Test12= 6.28D-15 2.56D-09 XBig12= 5.09D-12 3.34D-07.
      5 vectors produced by pass  6 Test12= 6.28D-15 2.56D-09 XBig12= 3.94D-15 1.08D-08.
 InvSVY:  IOpt=1 It=  1 EMax= 1.78D-15
 Solved reduced A of dimension   198 with    33 vectors.
 End of Minotr F.D. properties file   721 does not exist.
 End of Minotr F.D. properties file   722 does not exist.
 End of Minotr F.D. properties file   788 does not exist.
 Calling FoFJK, ICntrl=    100127 FMM=F ISym2X=0 I1Cent= 0 IOpClX= 0 NMat=1 NMatS=1 NMatT=0.
 -------------------------------------------------------------------
 Center     Atomic                   Forces (Hartrees/Bohr)
 Number     Number              X              Y              Z
 -------------------------------------------------------------------
      1        6           0.017680994    0.036495885   -0.003855633
      2        6           0.000013014    0.003776453   -0.002139015
      3        6           0.001021241    0.000931269   -0.000764777
      4        8           0.051720472   -0.064254135    0.005390271
      5        8          -0.018576439    0.024696802   -0.004444265
      6        8          -0.000798917   -0.000158373    0.000297045
      7        1          -0.001769493    0.004144731   -0.001240590
      8        1          -0.050325187    0.001173354    0.004278175
      9        1           0.002129172   -0.007295476    0.001694401
     10        1          -0.000025845   -0.000042876   -0.000021169
     11        1          -0.000474762    0.000532440    0.000832238
     12        1          -0.000594250   -0.000000074   -0.000026680
 -------------------------------------------------------------------
 Cartesian Forces:  Max     0.064254135 RMS     0.018352475
 IRC-IRC-IRC-IRC-IRC-IRC-IRC-IRC-IRC-IRC-IRC-IRC-IRC-IRC-IRC-IRC-IRC-IRC
 Pt  5 Step number   1 out of a maximum of 100
 Modified Bulirsch-Stoer Extrapolation Cycles:
    EPS =    0.000010000000000
      PEZero:  N= 2 I= 1 D=  8.48D-04 Err=  2.67D-05
      PEZero:  N= 3 I= 2 D=  8.48D-04 Err=  1.77D-05
      PEZero:  N= 3 I= 1 D=  1.70D-03 Err=  5.42D-08
 Maximum DWI energy   std dev =  0.000014552 at pt    67
 Maximum DWI gradient std dev =  0.001665984 at pt    35
 CORRECTOR INTEGRATION CONVERGENCE:
   Recorrection delta-x convergence threshold:    0.010000
   Delta-x Convergence Met
 Point Number:   5          Path Number:   1
   CHANGE IN THE REACTION COORDINATE =    0.16285
   NET REACTION COORDINATE UP TO THIS POINT =    0.81428
  # OF POINTS ALONG THE PATH =   5
  # OF STEPS =   1

 Calculating another point on the path.
 IRC-IRC-IRC-IRC-IRC-IRC-IRC-IRC-IRC-IRC-IRC-IRC-IRC-IRC-IRC-IRC-IRC-IRC
                          Input orientation:                          
 ---------------------------------------------------------------------
 Center     Atomic      Atomic             Coordinates (Angstroms)
 Number     Number       Type             X           Y           Z
 ---------------------------------------------------------------------
      1          6           0        0.486893    0.732605    0.288621
      2          6           0       -0.553081   -0.133956   -0.387759
      3          6           0       -1.868503   -0.224965    0.355114
      4          8           0        1.741549    0.698362   -0.216101
      5          8           0        2.548564   -0.880825    0.178159
      6          8           0       -2.952080   -0.120773   -0.176506
      7          1           0        3.135286   -0.953697   -0.598644
      8          1           0        0.874538    1.841073   -0.046285
      9          1           0        0.397300    0.867547    1.376289
     10          1           0       -1.793368   -0.413953    1.448654
     11          1           0       -0.091479   -1.137736   -0.396798
     12          1           0       -0.721792    0.159951   -1.427632
 ---------------------------------------------------------------------
                    Distance matrix (angstroms):
                    1          2          3          4          5
     1  C    0.000000
     2  C    1.513263   0.000000
     3  C    2.543472   1.513433   0.000000
     4  O    1.352804   2.446946   3.769787   0.000000
     5  O    2.620275   3.240105   4.468998   1.816741   0.000000
     6  O    3.573673   2.408319   1.211452   4.764736   5.564221
     7  H    3.262643   3.784243   5.145736   2.195027   0.976205
     8  H    1.221119   2.460780   3.457442   1.444414   3.203352
     9  H    1.099663   2.240111   2.714819   2.090774   3.019976
    10  H    2.803545   2.233635   1.112291   4.062548   4.548022
    11  H    2.074244   1.104868   2.134557   2.600750   2.714113
    12  H    2.175862   1.093700   2.154365   2.797452   3.789064
                    6          7          8          9         10
     6  O    0.000000
     7  H    6.158570   0.000000
     8  H    4.302186   3.636869   0.000000
     9  H    3.821819   3.835865   1.788638   0.000000
    10  H    2.017353   5.364176   3.799698   2.538997   0.000000
    11  H    3.043974   3.238306   3.151087   2.721011   2.612658
    12  H    2.572607   4.099326   2.698622   3.100811   3.122605
                   11         12
    11  H    0.000000
    12  H    1.773106   0.000000
 Symmetry turned off by external request.
 Stoichiometry    C3H6O3
 Framework group  C1[X(C3H6O3)]
 Deg. of freedom    30
 Full point group                 C1      NOp   1
 Rotational constants (GHZ):          10.7655953           1.3754131           1.2985212
 Standard basis: 6-31+G(d) (6D, 7F)
   126 basis functions,   216 primitive gaussians,   126 cartesian basis functions
    24 alpha electrons       24 beta electrons
       nuclear repulsion energy       224.4515706437 Hartrees.
 NAtoms=   12 NActive=   12 NUniq=   12 SFac= 1.00D+00 NAtFMM=   60 NAOKFM=F Big=F
 Integral buffers will be    131072 words long.
 Raffenetti 2 integral format.
 Two-electron integral symmetry is turned off.
 One-electron integrals computed using PRISM.
 NBasis=   126 RedAO= T EigKep=  1.16D-04  NBF=   126
 NBsUse=   126 1.00D-06 EigRej= -1.00D+00 NBFU=   126
 Initial guess from the checkpoint file:  "/scratch/bell/zhao922/YARP/paper-example/KHP-network/pp_0/IRC-folder/Gau-71253.chk"
 B after Tr=    -0.001488   -0.000076    0.000157
         Rot=    1.000000   -0.000285   -0.000014   -0.000179 Ang=  -0.04 deg.
 ExpMin= 4.38D-02 ExpMax= 5.48D+03 ExpMxC= 8.25D+02 IAcc=3 IRadAn=         5 AccDes= 0.00D+00
 Harris functional with IExCor=  402 and IRadAn=       5 diagonalized for initial guess.
 HarFok:  IExCor=  402 AccDes= 0.00D+00 IRadAn=         5 IDoV= 1 UseB2=F ITyADJ=14
 ICtDFT=  3500011 ScaDFX=  1.000000  1.000000  1.000000  1.000000
 FoFCou: FMM=F IPFlag=           0 FMFlag=      100000 FMFlg1=           0
         NFxFlg=           0 DoJE=T BraDBF=F KetDBF=T FulRan=T
         wScrn=  0.000000 ICntrl=       500 IOpCl=  0 I1Cent=   200000004 NGrid=           0
         NMat0=    1 NMatS0=      1 NMatT0=    0 NMatD0=    1 NMtDS0=    0 NMtDT0=    0
 Symmetry not used in FoFCou.
 Keep R1 ints in memory in canonical form, NReq=47237243.
 Requested convergence on RMS density matrix=1.00D-08 within 128 cycles.
 Requested convergence on MAX density matrix=1.00D-06.
 Requested convergence on             energy=1.00D-06.
 No special actions if energy rises.
 SCF Done:  E(RB3LYP) =  -343.424582591     A.U. after   12 cycles
            NFock= 12  Conv=0.49D-08     -V/T= 2.0096
 DoSCS=F DFT=T ScalE2(SS,OS)=  1.000000  1.000000
 Range of M.O.s used for correlation:     1   126
 NBasis=   126 NAE=    24 NBE=    24 NFC=     0 NFV=     0
 NROrb=    126 NOA=    24 NOB=    24 NVA=   102 NVB=   102

 **** Warning!!: The largest alpha MO coefficient is  0.30886903D+02

 Symmetrizing basis deriv contribution to polar:
 IMax=3 JMax=2 DiffMx= 0.00D+00
 G2DrvN: will do    13 centers at a time, making    1 passes.
 Calling FoFCou, ICntrl=  3107 FMM=F I1Cent=   0 AccDes= 0.00D+00.
 End of G2Drv F.D. properties file   721 does not exist.
 End of G2Drv F.D. properties file   722 does not exist.
 End of G2Drv F.D. properties file   788 does not exist.
          IDoAtm=111111111111
          Differentiating once with respect to nuclear coordinates.
 Keep R1 ints in memory in canonical form, NReq=47193265.
          There are    39 degrees of freedom in the 1st order CPHF.  IDoFFX=6 NUNeed=     0.
     33 vectors produced by pass  0 Test12= 6.28D-15 2.56D-09 XBig12= 1.50D-01 1.67D-01.
 AX will form    33 AO Fock derivatives at one time.
     33 vectors produced by pass  1 Test12= 6.28D-15 2.56D-09 XBig12= 5.28D-02 7.90D-02.
     33 vectors produced by pass  2 Test12= 6.28D-15 2.56D-09 XBig12= 5.64D-04 4.32D-03.
     33 vectors produced by pass  3 Test12= 6.28D-15 2.56D-09 XBig12= 2.61D-06 2.75D-04.
     33 vectors produced by pass  4 Test12= 6.28D-15 2.56D-09 XBig12= 5.40D-09 1.08D-05.
     27 vectors produced by pass  5 Test12= 6.28D-15 2.56D-09 XBig12= 5.39D-12 3.47D-07.
      4 vectors produced by pass  6 Test12= 6.28D-15 2.56D-09 XBig12= 4.21D-15 1.18D-08.
 InvSVY:  IOpt=1 It=  1 EMax= 2.44D-15
 Solved reduced A of dimension   196 with    33 vectors.
 End of Minotr F.D. properties file   721 does not exist.
 End of Minotr F.D. properties file   722 does not exist.
 End of Minotr F.D. properties file   788 does not exist.
 Calling FoFJK, ICntrl=    100127 FMM=F ISym2X=0 I1Cent= 0 IOpClX= 0 NMat=1 NMatS=1 NMatT=0.
 -------------------------------------------------------------------
 Center     Atomic                   Forces (Hartrees/Bohr)
 Number     Number              X              Y              Z
 -------------------------------------------------------------------
      1        6           0.016477237    0.038311594   -0.003770867
      2        6           0.000526512    0.003674922   -0.001849681
      3        6           0.001326536    0.001052898   -0.000965202
      4        8           0.056075664   -0.068845626    0.005635882
      5        8          -0.021459833    0.029001353   -0.004810311
      6        8          -0.000941390   -0.000160812    0.000363506
      7        1          -0.002073995    0.004753105   -0.001388281
      8        1          -0.051049754    0.000053667    0.004340538
      9        1           0.002559887   -0.008190724    0.001682440
     10        1          -0.000017806   -0.000053765   -0.000032797
     11        1          -0.000764890    0.000372259    0.000810564
     12        1          -0.000658167    0.000031128   -0.000015790
 -------------------------------------------------------------------
 Cartesian Forces:  Max     0.068845626 RMS     0.019542178
 IRC-IRC-IRC-IRC-IRC-IRC-IRC-IRC-IRC-IRC-IRC-IRC-IRC-IRC-IRC-IRC-IRC-IRC
 Pt  6 Step number   1 out of a maximum of 100
 Modified Bulirsch-Stoer Extrapolation Cycles:
    EPS =    0.000010000000000
      PEZero:  N= 2 I= 1 D=  8.48D-04 Err=  2.05D-05
      PEZero:  N= 3 I= 2 D=  8.48D-04 Err=  1.37D-05
      PEZero:  N= 3 I= 1 D=  1.70D-03 Err=  4.73D-08
 Maximum DWI energy   std dev =  0.000013613 at pt    45
 Maximum DWI gradient std dev =  0.001195502 at pt    35
 CORRECTOR INTEGRATION CONVERGENCE:
   Recorrection delta-x convergence threshold:    0.010000
   Delta-x Convergence Met
 Point Number:   6          Path Number:   1
   CHANGE IN THE REACTION COORDINATE =    0.16285
   NET REACTION COORDINATE UP TO THIS POINT =    0.97713
  # OF POINTS ALONG THE PATH =   6
  # OF STEPS =   1

 Calculating another point on the path.
 IRC-IRC-IRC-IRC-IRC-IRC-IRC-IRC-IRC-IRC-IRC-IRC-IRC-IRC-IRC-IRC-IRC-IRC
                          Input orientation:                          
 ---------------------------------------------------------------------
 Center     Atomic      Atomic             Coordinates (Angstroms)
 Number     Number       Type             X           Y           Z
 ---------------------------------------------------------------------
      1          6           0        0.488795    0.737318    0.288174
      2          6           0       -0.552983   -0.133521   -0.387962
      3          6           0       -1.868323   -0.224829    0.354983
      4          8           0        1.746858    0.691883   -0.215575
      5          8           0        2.546457   -0.877960    0.177703
      6          8           0       -2.952172   -0.120788   -0.176470
      7          1           0        3.132038   -0.946342   -0.600761
      8          1           0        0.800758    1.840504   -0.040075
      9          1           0        0.401334    0.855062    1.378727
     10          1           0       -1.793386   -0.414040    1.448595
     11          1           0       -0.092804   -1.137328   -0.395649
     12          1           0       -0.722781    0.160017   -1.427634
 ---------------------------------------------------------------------
                    Distance matrix (angstroms):
                    1          2          3          4          5
     1  C    0.000000
     2  C    1.516846   0.000000
     3  C    2.546801   1.513414   0.000000
     4  O    1.355932   2.449546   3.772987   0.000000
     5  O    2.618262   3.237390   4.466351   1.805113   0.000000
     6  O    3.576660   2.408527   1.211609   4.768946   5.561805
     7  H    3.257553   3.779595   5.141754   2.179650   0.976518
     8  H    1.192514   2.418764   3.397891   1.498411   3.238046
     9  H    1.100372   2.238126   2.713956   2.092573   3.007885
    10  H    2.807232   2.233882   1.112386   4.065201   4.545836
    11  H    2.078501   1.104288   2.132738   2.600537   2.713246
    12  H    2.178345   1.093578   2.153624   2.801979   3.787139
                    6          7          8          9         10
     6  O    0.000000
     7  H    6.154606   0.000000
     8  H    4.236716   3.676377   0.000000
     9  H    3.823209   3.823633   1.773030   0.000000
    10  H    2.017329   5.361251   3.745489   2.536198   0.000000
    11  H    3.042595   3.236997   3.129276   2.713337   2.610816
    12  H    2.571857   4.094799   2.659047   3.101996   3.122247
                   11         12
    11  H    0.000000
    12  H    1.773405   0.000000
 Symmetry turned off by external request.
 Stoichiometry    C3H6O3
 Framework group  C1[X(C3H6O3)]
 Deg. of freedom    30
 Full point group                 C1      NOp   1
 Rotational constants (GHZ):          10.8078384           1.3753783           1.2991238
 Standard basis: 6-31+G(d) (6D, 7F)
   126 basis functions,   216 primitive gaussians,   126 cartesian basis functions
    24 alpha electrons       24 beta electrons
       nuclear repulsion energy       224.4969430315 Hartrees.
 NAtoms=   12 NActive=   12 NUniq=   12 SFac= 1.00D+00 NAtFMM=   60 NAOKFM=F Big=F
 Integral buffers will be    131072 words long.
 Raffenetti 2 integral format.
 Two-electron integral symmetry is turned off.
 One-electron integrals computed using PRISM.
 NBasis=   126 RedAO= T EigKep=  1.17D-04  NBF=   126
 NBsUse=   126 1.00D-06 EigRej= -1.00D+00 NBFU=   126
 Initial guess from the checkpoint file:  "/scratch/bell/zhao922/YARP/paper-example/KHP-network/pp_0/IRC-folder/Gau-71253.chk"
 B after Tr=    -0.001469   -0.000112    0.000146
         Rot=    1.000000   -0.000300   -0.000016   -0.000176 Ang=  -0.04 deg.
 ExpMin= 4.38D-02 ExpMax= 5.48D+03 ExpMxC= 8.25D+02 IAcc=3 IRadAn=         5 AccDes= 0.00D+00
 Harris functional with IExCor=  402 and IRadAn=       5 diagonalized for initial guess.
 HarFok:  IExCor=  402 AccDes= 0.00D+00 IRadAn=         5 IDoV= 1 UseB2=F ITyADJ=14
 ICtDFT=  3500011 ScaDFX=  1.000000  1.000000  1.000000  1.000000
 FoFCou: FMM=F IPFlag=           0 FMFlag=      100000 FMFlg1=           0
         NFxFlg=           0 DoJE=T BraDBF=F KetDBF=T FulRan=T
         wScrn=  0.000000 ICntrl=       500 IOpCl=  0 I1Cent=   200000004 NGrid=           0
         NMat0=    1 NMatS0=      1 NMatT0=    0 NMatD0=    1 NMtDS0=    0 NMtDT0=    0
 Symmetry not used in FoFCou.
 Keep R1 ints in memory in canonical form, NReq=47237243.
 Requested convergence on RMS density matrix=1.00D-08 within 128 cycles.
 Requested convergence on MAX density matrix=1.00D-06.
 Requested convergence on             energy=1.00D-06.
 No special actions if energy rises.
 SCF Done:  E(RB3LYP) =  -343.434050352     A.U. after   12 cycles
            NFock= 12  Conv=0.62D-08     -V/T= 2.0096
 DoSCS=F DFT=T ScalE2(SS,OS)=  1.000000  1.000000
 Range of M.O.s used for correlation:     1   126
 NBasis=   126 NAE=    24 NBE=    24 NFC=     0 NFV=     0
 NROrb=    126 NOA=    24 NOB=    24 NVA=   102 NVB=   102

[...]
  71                    0.16225   0.57685   0.51283   1.38964  -1.75639
  72                    0.15453   0.57267   0.51759   1.38941  -1.75889
  73                    0.15000   0.56967   0.51770   1.38901  -1.76250
                          Y10       Z10       X11       Y11       Z11
   1                   -0.41126   1.44916  -0.13281  -1.15352  -0.41815
   2                   -0.41187   1.44866  -0.12798  -1.14994  -0.41617
   3                   -0.41224   1.44826  -0.12216  -1.14609  -0.41377
   4                   -0.41241   1.44800  -0.11536  -1.14203  -0.41120
   5                   -0.41248   1.44791  -0.10776  -1.13792  -0.40877
   6                   -0.41253   1.44796  -0.09970  -1.13397  -0.40679
   7                   -0.41268   1.44808  -0.09179  -1.13054  -0.40552
   8                   -0.41291   1.44813  -0.08521  -1.12830  -0.40501
   9                   -0.41306   1.44808  -0.08163  -1.12754  -0.40497
  10                   -0.41315   1.44803  -0.07948  -1.12736  -0.40506
  11                   -0.41320   1.44798  -0.07786  -1.12744  -0.40521
  12                   -0.41323   1.44794  -0.07654  -1.12776  -0.40543
  13                   -0.41321   1.44791  -0.07547  -1.12834  -0.40572
  14                   -0.41315   1.44790  -0.07466  -1.12921  -0.40607
  15                   -0.41301   1.44792  -0.07413  -1.13043  -0.40646
  16                   -0.41279   1.44797  -0.07390  -1.13202  -0.40688
  17                   -0.41248   1.44807  -0.07401  -1.13401  -0.40730
  18                   -0.41207   1.44822  -0.07449  -1.13642  -0.40774
  19                   -0.41157   1.44843  -0.07542  -1.13928  -0.40823
  20                   -0.41100   1.44870  -0.07693  -1.14258  -0.40888
  21                   -0.41045   1.44901  -0.07919  -1.14631  -0.40982
  22                   -0.40998   1.44934  -0.08238  -1.15041  -0.41122
  23                   -0.40969   1.44967  -0.08660  -1.15475  -0.41316
  24                   -0.40966   1.44995  -0.09177  -1.15913  -0.41558
  25                   -0.40990   1.45016  -0.09759  -1.16326  -0.41824
  26                   -0.41034   1.45028  -0.10351  -1.16682  -0.42082
  27                   -0.41090   1.45031  -0.10892  -1.16952  -0.42297
  28                   -0.41146   1.45026  -0.11325  -1.17117  -0.42447
  29                   -0.41196   1.45016  -0.11614  -1.17174  -0.42522
  30                   -0.41236   1.45001  -0.11745  -1.17128  -0.42520
  31                   -0.41267   1.44984  -0.11728  -1.16993  -0.42450
  32                   -0.41289   1.44967  -0.11584  -1.16789  -0.42324
  33                   -0.41305   1.44950  -0.11346  -1.16538  -0.42154
  34                   -0.41317   1.44935  -0.11047  -1.16258  -0.41956
  35                   -0.41326   1.44922  -0.10720  -1.15968  -0.41741
  36                   -0.41334   1.44911  -0.10390  -1.15681  -0.41520
  37                   -0.41341   1.44902  -0.10079  -1.15406  -0.41300
  38                   -0.41348   1.44895  -0.09798  -1.15150  -0.41087
  39                   -0.41353   1.44889  -0.09558  -1.14915  -0.40886
  40                   -0.41358   1.44885  -0.09361  -1.14702  -0.40698
  41                   -0.41363   1.44881  -0.09214  -1.14514  -0.40526
  42                   -0.41368   1.44878  -0.09097  -1.14338  -0.40361
  43                   -0.41372   1.44876  -0.09026  -1.14184  -0.40209
  44                   -0.41377   1.44874  -0.08997  -1.14050  -0.40066
  45                   -0.41382   1.44872  -0.09008  -1.13936  -0.39930
  46                   -0.41388   1.44869  -0.09059  -1.13843  -0.39802
  47                   -0.41395   1.44865  -0.09149  -1.13775  -0.39680
  48                   -0.41404   1.44859  -0.09281  -1.13734  -0.39565
  49                   -0.41415   1.44850  -0.09457  -1.13725  -0.39458
  50                   -0.41430   1.44837  -0.09680  -1.13752  -0.39360
  51                   -0.41448   1.44818  -0.09953  -1.13823  -0.39274
  52                   -0.41471   1.44792  -0.10277  -1.13943  -0.39203
  53                   -0.41499   1.44759  -0.10648  -1.14117  -0.39151
  54                   -0.41530   1.44719  -0.11054  -1.14343  -0.39120
  55                   -0.41560   1.44675  -0.11473  -1.14615  -0.39110
  56                   -0.41581   1.44630  -0.11878  -1.14920  -0.39118
  57                   -0.41585   1.44589  -0.12248  -1.15242  -0.39139
  58                   -0.41565   1.44555  -0.12577  -1.15576  -0.39171
  59                   -0.41513   1.44529  -0.12869  -1.15923  -0.39217
  60                   -0.41419   1.44512  -0.13136  -1.16297  -0.39285
  61                   -0.41269   1.44502  -0.13388  -1.16714  -0.39389
  62                   -0.41042   1.44501  -0.13623  -1.17196  -0.39548
  63                   -0.40720   1.44506  -0.13809  -1.17739  -0.39766
  64                   -0.40304   1.44516  -0.13883  -1.18306  -0.40017
  65                   -0.39832   1.44525  -0.13790  -1.18848  -0.40250
  66                   -0.39373   1.44528  -0.13507  -1.19338  -0.40415
  67                   -0.39049   1.44518  -0.13022  -1.19773  -0.40462
  68                   -0.39114   1.44484  -0.12303  -1.20170  -0.40289
  69                   -0.40085   1.44387  -0.11315  -1.20586  -0.39667
  70                   -0.42180   1.44169  -0.10232  -1.21113  -0.38530
  71                   -0.44685   1.43846  -0.09316  -1.21810  -0.37305
  72                   -0.47173   1.43455  -0.08661  -1.22670  -0.36274
  73                   -0.49509   1.43034  -0.08250  -1.23612  -0.35466
                          X12       Y12       Z12
   1                   -0.71674   0.18633  -1.41972
   2                   -0.71437   0.18695  -1.42024
   3                   -0.71203   0.18683  -1.42109
   4                   -0.70983   0.18602  -1.42222
   5                   -0.70786   0.18460  -1.42356
   6                   -0.70624   0.18267  -1.42501
   7                   -0.70516   0.18034  -1.42649
   8                   -0.70480   0.17801  -1.42782
   9                   -0.70488   0.17656  -1.42862
  10                   -0.70507   0.17559  -1.42914
  11                   -0.70531   0.17476  -1.42954
  12                   -0.70561   0.17396  -1.42988
  13                   -0.70595   0.17313  -1.43015
  14                   -0.70635   0.17223  -1.43035
  15                   -0.70678   0.17122  -1.43046
  16                   -0.70724   0.17007  -1.43049
  17                   -0.70772   0.16873  -1.43043
  18                   -0.70822   0.16718  -1.43028
  19                   -0.70878   0.16545  -1.43004
  20                   -0.70943   0.16362  -1.42968
  21                   -0.71019   0.16188  -1.42920
  22                   -0.71109   0.16045  -1.42857
  23                   -0.71209   0.15954  -1.42779
  24                   -0.71313   0.15925  -1.42691
  25                   -0.71408   0.15953  -1.42600
  26                   -0.71484   0.16021  -1.42517
  27                   -0.71531   0.16107  -1.42448
  28                   -0.71549   0.16192  -1.42398
  29                   -0.71542   0.16264  -1.42370
  30                   -0.71519   0.16315  -1.42363
  31                   -0.71489   0.16342  -1.42376
  32                   -0.71462   0.16348  -1.42405
  33                   -0.71445   0.16334  -1.42446
  34                   -0.71442   0.16307  -1.42494
  35                   -0.71455   0.16270  -1.42545
  36                   -0.71481   0.16229  -1.42594
  37                   -0.71519   0.16187  -1.42638
  38                   -0.71564   0.16147  -1.42674
  39                   -0.71615   0.16110  -1.42701
  40                   -0.71669   0.16079  -1.42720
  41                   -0.71727   0.16053  -1.42733
  42                   -0.71787   0.16031  -1.42742
  43                   -0.71852   0.16015  -1.42748
  44                   -0.71923   0.16003  -1.42753
  45                   -0.72002   0.15996  -1.42758
  46                   -0.72087   0.15993  -1.42761
  47                   -0.72179   0.15995  -1.42764
  48                   -0.72278   0.16002  -1.42764
  49                   -0.72382   0.16013  -1.42760
  50                   -0.72488   0.16030  -1.42750
  51                   -0.72593   0.16051  -1.42731
  52                   -0.72690   0.16076  -1.42701
  53                   -0.72773   0.16102  -1.42658
  54                   -0.72833   0.16122  -1.42603
  55                   -0.72860   0.16131  -1.42542
  56                   -0.72851   0.16119  -1.42482
  57                   -0.72802   0.16082  -1.42431
  58                   -0.72713   0.16020  -1.42394
  59                   -0.72583   0.15937  -1.42373
  60                   -0.72406   0.15837  -1.42367
  61                   -0.72169   0.15727  -1.42373
  62                   -0.71853   0.15612  -1.42387
  63                   -0.71443   0.15499  -1.42407
  64                   -0.70942   0.15381  -1.42430
  65                   -0.70361   0.15245  -1.42456
  66                   -0.69708   0.15072  -1.42480
  67                   -0.68992   0.14834  -1.42488
  68                   -0.68231   0.14437  -1.42454
  69                   -0.67486   0.13632  -1.42358
  70                   -0.66863   0.12241  -1.42254
  71                   -0.66365   0.10561  -1.42222
  72                   -0.65969   0.08877  -1.42245
  73                   -0.65665   0.07323  -1.42277
 --------------------------------------------------------------------------
 
 Total number of points:                   72
 Total number of gradient calculations:    73
 Total number of Hessian calculations:     73
 IRC-IRC-IRC-IRC-IRC-IRC-IRC-IRC-IRC-IRC-IRC-IRC-IRC-IRC-IRC-IRC-IRC-IRC
                          Input orientation:                          
 ---------------------------------------------------------------------
 Center     Atomic      Atomic             Coordinates (Angstroms)
 Number     Number       Type             X           Y           Z
 ---------------------------------------------------------------------
      1          6           0        0.488865    0.679722    0.290151
      2          6           0       -0.572843   -0.140113   -0.385176
      3          6           0       -1.875995   -0.226761    0.354430
      4          8           0        1.500207    0.981698   -0.305105
      5          8           0        2.683349   -0.978824    0.234818
      6          8           0       -2.959165   -0.122633   -0.177182
      7          1           0        3.362403   -1.361170   -0.340198
      8          1           0        2.832653   -0.021548    0.206485
      9          1           0        0.360949    0.936800    1.361212
     10          1           0       -1.801372   -0.411257    1.449164
     11          1           0       -0.132805   -1.153523   -0.418147
     12          1           0       -0.716745    0.186329   -1.419715
 ---------------------------------------------------------------------
                    Distance matrix (angstroms):
                    1          2          3          4          5
     1  C    0.000000
     2  C    1.501805   0.000000
     3  C    2.533457   1.500910   0.000000
     4  O    1.211747   2.358476   3.646107   0.000000
     5  O    2.751289   3.419154   4.622501   2.352656   0.000000
     6  O    3.570866   2.395434   1.211079   4.595858   5.721955
     7  H    3.580474   4.120578   5.404646   2.992998   0.968477
     8  H    2.447881   3.458544   4.715439   1.744603   0.969264
     9  H    1.108883   2.254235   2.715032   2.019043   3.214330
    10  H    2.789038   2.224321   1.112676   3.989763   4.680757
    11  H    2.061298   1.105315   2.120017   2.690479   2.896136
    12  H    2.149552   1.094323   2.159189   2.605733   3.956729
                    6          7          8          9         10
     6  O    0.000000
     7  H    6.443817   0.000000
     8  H    5.805393   1.540806   0.000000
     9  H    3.809490   4.145381   2.891564   0.000000
    10  H    2.017124   5.546956   4.813555   2.549633   0.000000
    11  H    3.018130   3.502239   3.235039   2.789151   2.611881
    12  H    2.582207   4.494392   3.909728   3.075416   3.124739
                   11         12
    11  H    0.000000
    12  H    1.771815   0.000000
 Symmetry turned off by external request.
 Stoichiometry    C3H6O3
 Framework group  C1[X(C3H6O3)]
 Deg. of freedom    30
 Full point group                 C1      NOp   1
 Rotational constants (GHZ):           9.1924506           1.3419656           1.2441841

 **********************************************************************

            Population analysis using the SCF Density.

 **********************************************************************

 Alpha  occ. eigenvalues --  -19.18649 -19.18201 -19.15570 -10.31433 -10.30705
 Alpha  occ. eigenvalues --  -10.22703  -1.08857  -1.07580  -1.01257  -0.80866
 Alpha  occ. eigenvalues --   -0.63254  -0.61219  -0.55091  -0.52157  -0.49060
 Alpha  occ. eigenvalues --   -0.48068  -0.45148  -0.44255  -0.40937  -0.39254
 Alpha  occ. eigenvalues --   -0.38154  -0.31162  -0.29963  -0.27548
 Alpha virt. eigenvalues --   -0.06828  -0.05497   0.00603   0.01369   0.02210
 Alpha virt. eigenvalues --    0.03590   0.05403   0.06595   0.07110   0.08333
 Alpha virt. eigenvalues --    0.08803   0.10830   0.11555   0.13132   0.15706
 Alpha virt. eigenvalues --    0.17742   0.18230   0.18541   0.19935   0.20786
 Alpha virt. eigenvalues --    0.21288   0.22762   0.23384   0.24768   0.26385
 Alpha virt. eigenvalues --    0.27611   0.28654   0.29321   0.31100   0.31767
 Alpha virt. eigenvalues --    0.33526   0.34697   0.35026   0.37566   0.39036
 Alpha virt. eigenvalues --    0.47093   0.61734   0.65404   0.67242   0.67915
 Alpha virt. eigenvalues --    0.71092   0.73906   0.79652   0.82724   0.82959
 Alpha virt. eigenvalues --    0.90175   0.94689   0.97935   0.99024   1.02903
 Alpha virt. eigenvalues --    1.03771   1.06355   1.07432   1.15518   1.17345
 Alpha virt. eigenvalues --    1.18989   1.22723   1.23456   1.26508   1.27485
 Alpha virt. eigenvalues --    1.28902   1.29373   1.39200   1.41069   1.49796
 Alpha virt. eigenvalues --    1.50967   1.53063   1.55317   1.60571   1.66734
 Alpha virt. eigenvalues --    1.71831   1.74518   1.74825   1.77078   1.79023
 Alpha virt. eigenvalues --    1.79526   1.81742   1.88220   1.92331   2.02863
 Alpha virt. eigenvalues --    2.05321   2.09989   2.15150   2.20316   2.28856
 Alpha virt. eigenvalues --    2.34700   2.41176   2.43263   2.55331   2.59803
 Alpha virt. eigenvalues --    2.67057   2.69406   2.82248   2.94762   3.03626
 Alpha virt. eigenvalues --    3.07789   3.93048   4.11617   4.17162   4.19306
 Alpha virt. eigenvalues --    4.33156   4.49374
          Condensed to atoms (all electrons):
               1          2          3          4          5          6
     1  C    5.011747  -0.166844   0.040651   0.529855   0.045133   0.007416
     2  C   -0.166844   6.596799  -0.012621  -0.194275  -0.073737  -0.127334
     3  C    0.040651  -0.012621   4.941919   0.026524   0.014855   0.470451
     4  O    0.529855  -0.194275   0.026524   8.172845  -0.076530  -0.001119
     5  O    0.045133  -0.073737   0.014855  -0.076530   8.622557  -0.000069
     6  O    0.007416  -0.127334   0.470451  -0.001119  -0.000069   8.075042
     7  H    0.002545   0.000572  -0.000823   0.002200   0.208829   0.000001
     8  H   -0.017702   0.018732  -0.003300   0.015812   0.210587   0.000002
     9  H    0.376382  -0.128017   0.034960  -0.067647   0.001491   0.000656
    10  H    0.039624  -0.145811   0.369151  -0.001171  -0.000020  -0.060093
    11  H   -0.047100   0.388709  -0.031942  -0.012657   0.004897  -0.001394
    12  H   -0.023732   0.363244  -0.025356  -0.001574  -0.000239   0.001781
               7          8          9         10         11         12
     1  C    0.002545  -0.017702   0.376382   0.039624  -0.047100  -0.023732
     2  C    0.000572   0.018732  -0.128017  -0.145811   0.388709   0.363244
     3  C   -0.000823  -0.003300   0.034960   0.369151  -0.031942  -0.025356
     4  O    0.002200   0.015812  -0.067647  -0.001171  -0.012657  -0.001574
     5  O    0.208829   0.210587   0.001491  -0.000020   0.004897  -0.000239
     6  O    0.000001   0.000002   0.000656  -0.060093  -0.001394   0.001781
     7  H    0.327332  -0.014585  -0.000011  -0.000000  -0.000218   0.000007
     8  H   -0.014585   0.298436  -0.000901   0.000005  -0.000277   0.000003
     9  H   -0.000011  -0.000901   0.605856   0.000935   0.002275   0.002552
    10  H   -0.000000   0.000005   0.000935   0.628033   0.001547   0.003242
    11  H   -0.000218  -0.000277   0.002275   0.001547   0.423960  -0.015534
    12  H    0.000007   0.000003   0.002552   0.003242  -0.015534   0.429492
 Mulliken charges:
               1
     1  C    0.202026
     2  C   -0.519416
     3  C    0.175531
     4  O   -0.392262
     5  O   -0.957754
     6  O   -0.365341
     7  H    0.474152
     8  H    0.493188
     9  H    0.171469
    10  H    0.164559
    11  H    0.287735
    12  H    0.266114
 Sum of Mulliken charges =  -0.00000
 Mulliken charges with hydrogens summed into heavy atoms:
               1
     1  C    0.373496
     2  C    0.034432
     3  C    0.340090
     4  O   -0.392262
     5  O    0.009585
     6  O   -0.365341
 APT charges:
               1
     1  C   -0.364194
     2  C   -0.548154
     3  C   -0.568400
     4  O   -0.177091
     5  O   -1.364029
     6  O    0.034139
     7  H    0.855344
     8  H    0.470613
     9  H    0.397080
    10  H    0.384041
    11  H    0.413563
    12  H    0.467088
 Sum of APT charges =  -0.00000
 APT charges with hydrogens summed into heavy atoms:
               1
     1  C    0.032886
     2  C    0.332498
     3  C   -0.184359
     4  O   -0.177091
     5  O   -0.038072
     6  O    0.034139
 Electronic spatial extent (au):  <R**2>=            893.8599
 Charge=             -0.0000 electrons
 Dipole moment (field-independent basis, Debye):
    X=              1.7127    Y=             -0.2376    Z=              0.6083  Tot=              1.8330
 Quadrupole moment (field-independent basis, Debye-Ang):
   XX=            -44.0116   YY=            -36.3236   ZZ=            -35.1504
   XY=             -1.2953   XZ=             -4.8308   YZ=              3.0757
 Traceless Quadrupole moment (field-independent basis, Debye-Ang):
   XX=             -5.5164   YY=              2.1716   ZZ=              3.3448
   XY=             -1.2953   XZ=             -4.8308   YZ=              3.0757
 Octapole moment (field-independent basis, Debye-Ang**2):
  XXX=             72.8438  YYY=             -2.0029  ZZZ=             -1.9977  XYY=             -1.5850
  XXY=             -5.6277  XXZ=             -6.8657  XZZ=             -2.3729  YZZ=              1.7171
  YYZ=             -2.6915  XYZ=              8.2950
 Hexadecapole moment (field-independent basis, Debye-Ang**3):
 XXXX=           -878.5091 YYYY=           -130.3268 ZZZZ=            -78.1174 XXXY=            -27.1958
 XXXZ=            -61.1778 YYYX=             -1.8327 YYYZ=              8.8297 ZZZX=             -7.8778
 ZZZY=              5.0360 XXYY=           -157.0190 XXZZ=           -162.0782 YYZZ=            -36.1904
 XXYZ=             22.5430 YYXZ=             -9.3813 ZZXY=              4.7230
 N-N= 2.218729134115D+02 E-N=-1.248568073918D+03  KE= 3.405757860935D+02
  Exact polarizability:   0.000   0.000   0.000   0.000   0.000   0.000
 Approx polarizability:  85.621   2.057  52.223  -0.260  -0.585  63.578

 This type of calculation cannot be archived.


 FAULTILY FAULTLESS, ICILY REGULAR, SPLENDIDLY NULL...
           MAUDE BY TENNYSON
 Job cpu time:       0 days  5 hours 13 minutes 49.3 seconds.
 Elapsed time:       0 days  0 hours 20 minutes  6.1 seconds.
 File lengths (MBytes):  RWF=     28 Int=      0 D2E=      0 Chk=      4 Scr=      1
 Normal termination of Gaussian 16 at Wed Dec 23 22:36:40 2020.
