 Entering Gaussian System, Link 0=g16
 Initial command:
 /apps/cent7/gaussian/g16-B.01/g16-haswell/g16/l1.exe "/scratch/bell/zhao922/YARP/paper-example/KHP-network/pp_0/IRC-folder/Gau-116545.inp" -scrdir="/scratch/bell/zhao922/YARP/paper-example/KHP-network/pp_0/IRC-folder/"
 Entering Link 1 = /apps/cent7/gaussian/g16-B.01/g16-haswell/g16/l1.exe PID=    116546.
  
 Copyright (c) 1988-2017, Gaussian, Inc.  All Rights Reserved.
  
 This is part of the Gaussian(R) 16 program.  It is based on
 the Gaussian(R) 09 system (copyright 2009, Gaussian, Inc.),
 the Gaussian(R) 03 system (copyright 2003, Gaussian, Inc.),
 the Gaussian(R) 98 system (copyright 1998, Gaussian, Inc.),
 the Gaussian(R) 94 system (copyright 1995, Gaussian, Inc.),
 the Gaussian 92(TM) system (copyright 1992, Gaussian, Inc.),
 the Gaussian 90(TM) system (copyright 1990, Gaussian, Inc.),
 the Gaussian 88(TM) system (copyright 1988, Gaussian, Inc.),
 the Gaussian 86(TM) system (copyright 1986, Carnegie Mellon
 University), and the Gaussian 82(TM) system (copyright 1983,
 Carnegie Mellon University). Gaussian is a federally registered
 trademark of Gaussian, Inc.
  
 This software contains proprietary and confidential information,
 including trade secrets, belonging to Gaussian, Inc.
  
 This software is provided under written license and may be
 used, copied, transmitted, or stored only in accord with that
 written license.
  
 The following legend is applicable only to US Government
 contracts under FAR:
  
                    RESTRICTED RIGHTS LEGEND
  
 Use, reproduction and disclosure by the US Government is
 subject to restrictions as set forth in subparagraphs (a)
 and (c) of the Commercial Computer Software - Restricted
 Rights clause in FAR 52.227-19.
  
 Gaussian, Inc.
 340 Quinnipiac St., Bldg. 40, Wallingford CT 06492
  
  
 ---------------------------------------------------------------
 Warning -- This program may not be used in any manner that
 competes with the business of Gaussian, Inc. or will provide
 assistance to any competitor of Gaussian, Inc.  The licensee
 of this program is prohibited from giving any competitor of
 Gaussian, Inc. access to this program.  By using this program,
 the user acknowledges that Gaussian, Inc. is engaged in the
 business of creating and licensing software in the field of
 computational chemistry and represents and warrants to the
 licensee that it is not a competitor of Gaussian, Inc. and that
 it will not use this program in any manner prohibited above.
 ---------------------------------------------------------------
  

 Cite this work as:
 Gaussian 16, Revision B.01,
 M. J. Frisch, G. W. Trucks, H. B. Schlegel, G. E. Scuseria, 
 M. A. Robb, J. R. Cheeseman, G. Scalmani, V. Barone, 
 G. A. Petersson, H. Nakatsuji, X. Li, M. Caricato, A. V. Marenich, 
 J. Bloino, B. G. Janesko, R. Gomperts, B. Mennucci, H. P. Hratchian, 
 J. V. Ortiz, A. F. Izmaylov, J. L. Sonnenberg, D. Williams-Young, 
 F. Ding, F. Lipparini, F. Egidi, J. Goings, B. Peng, A. Petrone, 
 T. Henderson, D. Ranasinghe, V. G. Zakrzewski, J. Gao, N. Rega, 
 G. Zheng, W. Liang, M. Hada, M. Ehara, K. Toyota, R. Fukuda, 
 J. Hasegawa, M. Ishida, T. Nakajima, Y. Honda, O. Kitao, H. Nakai, 
 T. Vreven, K. Throssell, J. A. Montgomery, Jr., J. E. Peralta, 
 F. Ogliaro, M. J. Bearpark, J. J. Heyd, E. N. Brothers, K. N. Kudin, 
 V. N. Staroverov, T. A. Keith, R. Kobayashi, J. Normand, 
 K. Raghavachari, A. P. Rendell, J. C. Burant, S. S. Iyengar, 
 J. Tomasi, M. Cossi, J. M. Millam, M. Klene, C. Adamo, R. Cammi, 
 J. W. Ochterski, R. L. Martin, K. Morokuma, O. Farkas, 
 J. B. Foresman, and D. J. Fox, Gaussian, Inc., Wallingford CT, 2016.
 
 ******************************************
 Gaussian 16:  ES64L-G16RevB.01 20-Dec-2017
                23-Dec-2020 
 ******************************************
 %NProcShared=16
 Will use up to   16 processors via shared memory.
 %Mem=6GB
 ----------------------------------------------------------------------
 # B3LYP/6-31+G* IRC=(CALCALL, maxpoints=40, StepSize=15, maxcyc=100, R
 eport=Cartesians)
 ----------------------------------------------------------------------
 1/6=100,10=4,18=10,26=3,38=1,39=15,42=40,44=3,71=1,129=10,172=1/1,23;
 2/12=2,17=6,18=5,29=1,40=1/2;
 3/5=1,6=6,7=11,11=2,25=1,30=1,71=2,74=-5,140=1/1,2,3;
 4//1;
 5/5=2,38=5/2;
 8/6=4,10=90,11=11/1;
 11/6=1,8=1,9=11,15=111,16=1/1,2,10;
 10/6=1,13=1/2;
 6/7=2,8=2,9=2,10=2,18=1,28=1/1;
 7/10=1,25=1/1,2,3,16;
 1/6=100,10=4,18=10,26=3,39=15,42=40,44=3,71=1,129=10/23(2);
 2/29=1/2;
 99/5=20/99;
 2/29=1/2;
 3/5=1,6=6,7=11,11=2,25=1,30=1,71=2,74=-5,140=1/1,2,3;
 4/5=5,16=3,69=1/1;
 5/5=2,38=5/2;
 8/6=4,10=90,11=11/1;
 11/6=1,8=1,9=11,15=111,16=1/1,2,10;
 10/6=1,13=1/2;
 7/10=1,25=1/1,2,3,16;
 1/6=100,10=4,18=10,26=3,39=15,42=40,44=3,71=1,129=10/23(-8);
 2/29=1/2;
 6/7=2,8=2,9=2,10=2,18=1,19=2,28=1/1;
 99/5=20/99;
 -----------
 pp_12_0 IRC
 -----------
 Symbolic Z-matrix:
 Charge =  0 Multiplicity = 1
 C                     0.38484   1.08015  -0.30053 
 C                    -0.62779   0.93106   0.76563 
 C                    -1.36755  -0.0372   -0.22408 
 O                     1.35956   0.21688  -0.49324 
 O                     1.37639  -0.88193   0.47557 
 O                    -1.06649  -1.29205  -0.20609 
 H                     0.46367  -1.31031   0.25339 
 H                    -0.84953   0.515    -1.25661 
 H                     0.54764   1.98914  -0.87716 
 H                    -2.40646   0.29308  -0.40935 
 H                    -1.16562   1.86366   0.94773 
 H                    -0.2824    0.46215   1.68601 
 
 IRC-IRC-IRC-IRC-IRC-IRC-IRC-IRC-IRC-IRC-IRC-IRC-IRC-IRC-IRC-IRC-IRC-IRC
 ------------------------------------------------------------------------
 INPUT DATA FOR L123
 ------------------------------------------------------------------------
 GENERAL PARAMETERS:
 Follow reaction path in both directions.
 Maximum points per path      =  40
 Step size                    =   0.150 bohr
 Integration scheme           = HPC                                 
    Redo corrector integration= Yes                                 
    DWI Weight Power          =  2
    DWI will use Hessian update vectors when possible.
    Max correction cycles     = 100
 Initial Hessian              = CalcFC
 Hessian evaluation           = Analytic at all predictor steps
                              = Update at all corrector steps
 Hessian updating method      = Bofill                              
 ------------------------------------------------------------------------
 IRC-IRC-IRC-IRC-IRC-IRC-IRC-IRC-IRC-IRC-IRC-IRC-IRC-IRC-IRC-IRC-IRC-IRC
                          Input orientation:                          
 ---------------------------------------------------------------------
 Center     Atomic      Atomic             Coordinates (Angstroms)
 Number     Number       Type             X           Y           Z
 ---------------------------------------------------------------------
      1          6           0        0.384837    1.080150   -0.300531
      2          6           0       -0.627785    0.931056    0.765627
      3          6           0       -1.367546   -0.037199   -0.224082
      4          8           0        1.359558    0.216881   -0.493237
      5          8           0        1.376391   -0.881927    0.475570
      6          8           0       -1.066491   -1.292048   -0.206094
      7          1           0        0.463673   -1.310309    0.253386
      8          1           0       -0.849532    0.514997   -1.256613
      9          1           0        0.547642    1.989136   -0.877159
     10          1           0       -2.406462    0.293079   -0.409346
     11          1           0       -1.165620    1.863659    0.947730
     12          1           0       -0.282404    0.462150    1.686009
 ---------------------------------------------------------------------
                    Distance matrix (angstroms):
                    1          2          3          4          5
     1  C    0.000000
     2  C    1.477946   0.000000
     3  C    2.079702   1.569805   0.000000
     4  O    1.316226   2.458519   2.752108   0.000000
     5  O    2.331364   2.718044   2.955041   1.465008   0.000000
     6  O    2.782552   2.465542   1.290583   2.871416   2.569151
     7  H    2.455063   2.545071   2.280822   1.921553   1.032439
     8  H    1.660469   2.076471   1.280382   2.356203   3.147473
     9  H    1.088697   2.280331   2.863649   1.986830   3.280199
    10  H    2.902184   2.225145   1.105782   3.767725   4.058780
    11  H    2.139149   1.091868   2.242137   3.341375   3.771339
    12  H    2.184829   1.089157   2.252849   2.739582   2.454243
                    6          7          8          9         10
     6  O    0.000000
     7  H    1.597766   0.000000
     8  H    2.101445   2.708569   0.000000
     9  H    3.717785   3.488771   2.066196   0.000000
    10  H    2.085536   3.353765   1.786376   3.438341   0.000000
    11  H    3.361491   3.634664   2.603446   2.506238   2.418277
    12  H    2.696675   2.398051   2.997241   3.096852   2.988431
                   11         12
    11  H    0.000000
    12  H    1.813658   0.000000
 Symmetry turned off by external request.
 Stoichiometry    C3H6O3
 Framework group  C1[X(C3H6O3)]
 Deg. of freedom    30
 Full point group                 C1      NOp   1
 Rotational constants (GHZ):           5.2104929           3.6385007           2.6691961
 Standard basis: 6-31+G(d) (6D, 7F)
   126 basis functions,   216 primitive gaussians,   126 cartesian basis functions
    24 alpha electrons       24 beta electrons
       nuclear repulsion energy       255.7183960204 Hartrees.
 NAtoms=   12 NActive=   12 NUniq=   12 SFac= 1.00D+00 NAtFMM=   60 NAOKFM=F Big=F
 Integral buffers will be    131072 words long.
 Raffenetti 2 integral format.
 Two-electron integral symmetry is turned off.
 One-electron integrals computed using PRISM.
 NBasis=   126 RedAO= T EigKep=  1.13D-04  NBF=   126
 NBsUse=   126 1.00D-06 EigRej= -1.00D+00 NBFU=   126
 ExpMin= 4.38D-02 ExpMax= 5.48D+03 ExpMxC= 8.25D+02 IAcc=3 IRadAn=         5 AccDes= 0.00D+00
 Harris functional with IExCor=  402 and IRadAn=       5 diagonalized for initial guess.
 HarFok:  IExCor=  402 AccDes= 0.00D+00 IRadAn=         5 IDoV= 1 UseB2=F ITyADJ=14
 ICtDFT=  3500011 ScaDFX=  1.000000  1.000000  1.000000  1.000000
 FoFCou: FMM=F IPFlag=           0 FMFlag=      100000 FMFlg1=           0
         NFxFlg=           0 DoJE=T BraDBF=F KetDBF=T FulRan=T
         wScrn=  0.000000 ICntrl=       500 IOpCl=  0 I1Cent=   200000004 NGrid=           0
         NMat0=    1 NMatS0=      1 NMatT0=    0 NMatD0=    1 NMtDS0=    0 NMtDT0=    0
 Symmetry not used in FoFCou.
 Keep R1 ints in memory in canonical form, NReq=47237243.
 Requested convergence on RMS density matrix=1.00D-08 within 128 cycles.
 Requested convergence on MAX density matrix=1.00D-06.
 Requested convergence on             energy=1.00D-06.
 No special actions if energy rises.
 SCF Done:  E(RB3LYP) =  -343.397313865     A.U. after   16 cycles
            NFock= 16  Conv=0.41D-08     -V/T= 2.0090
 DoSCS=F DFT=T ScalE2(SS,OS)=  1.000000  1.000000
 Range of M.O.s used for correlation:     1   126
 NBasis=   126 NAE=    24 NBE=    24 NFC=     0 NFV=     0
 NROrb=    126 NOA=    24 NOB=    24 NVA=   102 NVB=   102

 **** Warning!!: The largest alpha MO coefficient is  0.27428930D+02

 Symmetrizing basis deriv contribution to polar:
 IMax=3 JMax=2 DiffMx= 0.00D+00
 G2DrvN: will do    13 centers at a time, making    1 passes.
 Calling FoFCou, ICntrl=  3107 FMM=F I1Cent=   0 AccDes= 0.00D+00.
 End of G2Drv F.D. properties file   721 does not exist.
 End of G2Drv F.D. properties file   722 does not exist.
 End of G2Drv F.D. properties file   788 does not exist.
          IDoAtm=111111111111
          Differentiating once with respect to nuclear coordinates.
 Keep R1 ints in memory in canonical form, NReq=47193244.
          There are    39 degrees of freedom in the 1st order CPHF.  IDoFFX=6 NUNeed=     0.
     33 vectors produced by pass  0 Test12= 6.28D-15 2.56D-09 XBig12= 1.87D-01 1.87D-01.
 AX will form    33 AO Fock derivatives at one time.
     33 vectors produced by pass  1 Test12= 6.28D-15 2.56D-09 XBig12= 3.60D-02 4.77D-02.
     33 vectors produced by pass  2 Test12= 6.28D-15 2.56D-09 XBig12= 8.15D-04 3.99D-03.
     33 vectors produced by pass  3 Test12= 6.28D-15 2.56D-09 XBig12= 6.26D-06 2.93D-04.
     33 vectors produced by pass  4 Test12= 6.28D-15 2.56D-09 XBig12= 1.15D-08 1.92D-05.
     29 vectors produced by pass  5 Test12= 6.28D-15 2.56D-09 XBig12= 1.32D-11 5.65D-07.
      4 vectors produced by pass  6 Test12= 6.28D-15 2.56D-09 XBig12= 1.32D-14 1.73D-08.
 InvSVY:  IOpt=1 It=  1 EMax= 1.89D-15
 Solved reduced A of dimension   198 with    33 vectors.
 End of Minotr F.D. properties file   721 does not exist.
 End of Minotr F.D. properties file   722 does not exist.
 End of Minotr F.D. properties file   788 does not exist.

 **********************************************************************

            Population analysis using the SCF Density.

 **********************************************************************

 Alpha  occ. eigenvalues --  -19.29262 -19.22411 -19.11333 -10.34968 -10.28814
 Alpha  occ. eigenvalues --  -10.23358  -1.18479  -1.00436  -0.97142  -0.83276
 Alpha  occ. eigenvalues --   -0.67173  -0.63170  -0.57838  -0.55323  -0.52506
 Alpha  occ. eigenvalues --   -0.46717  -0.44035  -0.43184  -0.41136  -0.39947
 Alpha  occ. eigenvalues --   -0.39047  -0.32034  -0.25402  -0.24485
 Alpha virt. eigenvalues --   -0.08160  -0.04147  -0.01144   0.01230   0.02031
 Alpha virt. eigenvalues --    0.03051   0.05572   0.06457   0.06781   0.07068
 Alpha virt. eigenvalues --    0.09154   0.09402   0.11158   0.14118   0.14912
 Alpha virt. eigenvalues --    0.16334   0.17888   0.18775   0.20623   0.21719
 Alpha virt. eigenvalues --    0.22087   0.23581   0.24453   0.24798   0.26465
 Alpha virt. eigenvalues --    0.27130   0.28224   0.29037   0.30934   0.31365
 Alpha virt. eigenvalues --    0.32110   0.32677   0.35856   0.38377   0.39907
 Alpha virt. eigenvalues --    0.43817   0.59596   0.62235   0.66182   0.68174
 Alpha virt. eigenvalues --    0.72093   0.74124   0.76792   0.79876   0.83058
 Alpha virt. eigenvalues --    0.89128   0.91839   0.95474   0.99968   1.04222
 Alpha virt. eigenvalues --    1.05335   1.09531   1.10251   1.17205   1.19453
 Alpha virt. eigenvalues --    1.21942   1.22760   1.23659   1.26775   1.29899
 Alpha virt. eigenvalues --    1.33103   1.35953   1.38969   1.45867   1.51010
 Alpha virt. eigenvalues --    1.53339   1.54885   1.60060   1.63139   1.66446
 Alpha virt. eigenvalues --    1.73657   1.77681   1.79643   1.82432   1.86712
 Alpha virt. eigenvalues --    1.91209   1.95600   1.98061   2.02591   2.09176
 Alpha virt. eigenvalues --    2.12091   2.16790   2.24614   2.24835   2.30400
 Alpha virt. eigenvalues --    2.34194   2.46097   2.49114   2.52449   2.55271
 Alpha virt. eigenvalues --    2.65512   2.75416   2.81312   2.89473   2.99818
 Alpha virt. eigenvalues --    3.14274   3.97966   4.22938   4.31039   4.33582
 Alpha virt. eigenvalues --    4.35453   4.52928
          Condensed to atoms (all electrons):
               1          2          3          4          5          6
     1  C    6.245289  -0.673499  -0.071790   0.145322   0.127867  -0.080654
     2  C   -0.673499   6.726930  -0.159052   0.001197  -0.003002  -0.057486
     3  C   -0.071790  -0.159052   5.590792   0.002879  -0.110770   0.299635
     4  O    0.145322   0.001197   0.002879   7.817145   0.063459   0.071626
     5  O    0.127867  -0.003002  -0.110770   0.063459   8.396995  -0.080894
     6  O   -0.080654  -0.057486   0.299635   0.071626  -0.080894   8.421856
     7  H   -0.052230  -0.005535   0.032825   0.010867   0.078309   0.114563
     8  H    0.401333  -0.353697   0.244292  -0.064698   0.008442  -0.067198
     9  H    0.291002   0.019390   0.002688  -0.039700   0.003095   0.003499
    10  H   -0.074979  -0.019978   0.390161   0.007441  -0.004244  -0.052571
    11  H   -0.008697   0.333644  -0.028377   0.005520  -0.000343   0.006400
    12  H   -0.016305   0.380254  -0.030300  -0.007323   0.001316  -0.001985
               7          8          9         10         11         12
     1  C   -0.052230   0.401333   0.291002  -0.074979  -0.008697  -0.016305
     2  C   -0.005535  -0.353697   0.019390  -0.019978   0.333644   0.380254
     3  C    0.032825   0.244292   0.002688   0.390161  -0.028377  -0.030300
     4  O    0.010867  -0.064698  -0.039700   0.007441   0.005520  -0.007323
     5  O    0.078309   0.008442   0.003095  -0.004244  -0.000343   0.001316
     6  O    0.114563  -0.067198   0.003499  -0.052571   0.006400  -0.001985
     7  H    0.292558   0.001244  -0.000188   0.001717   0.000172  -0.001743
     8  H    0.001244   0.721037  -0.027755  -0.043263   0.007965   0.004995
     9  H   -0.000188  -0.027755   0.498698   0.000610  -0.005163   0.001233
    10  H    0.001717  -0.043263   0.000610   0.578136  -0.001975  -0.000698
    11  H    0.000172   0.007965  -0.005163  -0.001975   0.493721  -0.019133
    12  H   -0.001743   0.004995   0.001233  -0.000698  -0.019133   0.417369
 Mulliken charges:
               1
     1  C   -0.232659
     2  C   -0.189167
     3  C   -0.162982
     4  O   -0.013734
     5  O   -0.480230
     6  O   -0.576792
     7  H    0.527442
     8  H    0.167303
     9  H    0.252590
    10  H    0.219642
    11  H    0.216267
    12  H    0.272321
 Sum of Mulliken charges =  -0.00000
 Mulliken charges with hydrogens summed into heavy atoms:
               1
     1  C    0.019931
     2  C    0.299421
     3  C    0.223963
     4  O   -0.013734
     5  O    0.047211
     6  O   -0.576792
 APT charges:
               1
     1  C   -0.480065
     2  C   -0.754229
     3  C   -0.498617
     4  O   -0.070958
     5  O   -0.394278
     6  O   -0.692030
     7  H    0.493562
     8  H    0.252842
     9  H    0.611983
    10  H    0.562713
    11  H    0.546467
    12  H    0.422610
 Sum of APT charges =  -0.00000
 APT charges with hydrogens summed into heavy atoms:
               1
     1  C    0.131919
     2  C    0.214847
     3  C    0.316938
     4  O   -0.070958
     5  O    0.099285
     6  O   -0.692030
 Electronic spatial extent (au):  <R**2>=            507.0410
 Charge=             -0.0000 electrons
 Dipole moment (field-independent basis, Debye):
    X=             -0.9337    Y=              5.2053    Z=              0.2180  Tot=              5.2929
 Quadrupole moment (field-independent basis, Debye-Ang):
   XX=            -39.8838   YY=            -36.1937   ZZ=            -36.0850
   XY=             -2.6844   XZ=             -1.2225   YZ=             -1.7191
 Traceless Quadrupole moment (field-independent basis, Debye-Ang):
   XX=             -2.4963   YY=              1.1938   ZZ=              1.3025
   XY=             -2.6844   XZ=             -1.2225   YZ=             -1.7191
 Octapole moment (field-independent basis, Debye-Ang**2):
  XXX=             -3.6948  YYY=              7.7041  ZZZ=              2.1274  XYY=              9.0641
  XXY=              7.5214  XXZ=             -1.1000  XZZ=              1.8104  YZZ=              0.5056
  YYZ=             -0.0767  XYZ=             -0.0552
 Hexadecapole moment (field-independent basis, Debye-Ang**3):
 XXXX=           -307.3231 YYYY=           -213.8501 ZZZZ=           -102.2640 XXXY=             -2.2775
 XXXZ=             -0.2201 YYYX=             -8.6273 YYYZ=             -9.9137 ZZZX=             -3.1676
 ZZZY=             -2.3923 XXYY=            -97.1918 XXZZ=            -71.6204 YYZZ=            -53.1636
 XXYZ=              0.6312 YYXZ=             -5.3618 ZZXY=             -0.0875
 N-N= 2.557183960204D+02 E-N=-1.315314673793D+03  KE= 3.403360214103D+02
  Exact polarizability:   0.000   0.000   0.000   0.000   0.000   0.000
 Approx polarizability: 102.183  16.363 100.877   3.336  -9.492  65.668
 Calling FoFJK, ICntrl=    100127 FMM=F ISym2X=0 I1Cent= 0 IOpClX= 0 NMat=1 NMatS=1 NMatT=0.
 -------------------------------------------------------------------
 Center     Atomic                   Forces (Hartrees/Bohr)
 Number     Number              X              Y              Z
 -------------------------------------------------------------------
      1        6           0.000000648    0.000000159    0.000000609
      2        6           0.000000400    0.000000606    0.000000134
      3        6          -0.000000544    0.000000483   -0.000001609
      4        8           0.000000163    0.000000155    0.000001164
      5        8           0.000011954    0.000006437    0.000004728
      6        8           0.000000951   -0.000001455    0.000000627
      7        1          -0.000012098   -0.000005452   -0.000001308
      8        1           0.000000646   -0.000000881   -0.000000937
      9        1           0.000000016   -0.000000473   -0.000000347
     10        1           0.000000474   -0.000001078   -0.000001000
     11        1          -0.000001218    0.000000484   -0.000001576
     12        1          -0.000001390    0.000001016   -0.000000486
 -------------------------------------------------------------------
 Cartesian Forces:  Max     0.000012098 RMS     0.000003358
 IRC-IRC-IRC-IRC-IRC-IRC-IRC-IRC-IRC-IRC-IRC-IRC-IRC-IRC-IRC-IRC-IRC-IRC
          ******** Start new reaction path calculation ********
 Supplied step size of   0.1500 bohr.
    Integration on MW PES will use step size of   0.1834 sqrt(amu)*bohr.
 Point Number:   0          Path Number:   1
 Calculating another point on the path.
 IRC-IRC-IRC-IRC-IRC-IRC-IRC-IRC-IRC-IRC-IRC-IRC-IRC-IRC-IRC-IRC-IRC-IRC
                          Input orientation:                          
 ---------------------------------------------------------------------
 Center     Atomic      Atomic             Coordinates (Angstroms)
 Number     Number       Type             X           Y           Z
 ---------------------------------------------------------------------
      1          6           0        0.351038    1.123544   -0.287947
      2          6           0       -0.666169    0.975005    0.768060
      3          6           0       -1.407788    0.007946   -0.230101
      4          8           0        1.316122    0.259870   -0.489565
      5          8           0        1.335227   -0.840467    0.478838
      6          8           0       -1.105098   -1.252999   -0.200352
      7          1           0        0.413036   -1.265320    0.255481
      8          1           0       -0.947890    0.525044   -1.257716
      9          1           0        0.495814    2.021027   -0.887561
     10          1           0       -2.456698    0.331257   -0.374837
     11          1           0       -1.203016    1.907860    0.950654
     12          1           0       -0.326884    0.498950    1.687096
 ---------------------------------------------------------------------
                    Distance matrix (angstroms):
                    1          2          3          4          5
     1  C    0.000000
     2  C    1.473746   0.000000
     3  C    2.083596   1.575286   0.000000
     4  O    1.310714   2.454082   2.747813   0.000000
     5  O    2.326785   2.717568   2.957453   1.465917   0.000000
     6  O    2.788541   2.468701   1.297108   2.869621   2.566451
     7  H    2.450679   2.538991   2.274290   1.922723   1.039628
     8  H    1.727967   2.094183   1.238906   2.405437   3.176927
     9  H    1.089024   2.277159   2.847534   1.983174   3.280215
    10  H    2.918672   2.219599   1.107109   3.775239   4.059605
    11  H    2.136437   1.091679   2.246282   3.337088   3.770754
    12  H    2.179562   1.089206   2.255013   2.737606   2.452864
                    6          7          8          9         10
     6  O    0.000000
     7  H    1.585139   0.000000
     8  H    2.074649   2.710588   0.000000
     9  H    3.708696   3.480442   2.111697   0.000000
    10  H    2.089769   3.343909   1.758843   3.440282   0.000000
    11  H    3.365328   3.628217   2.618046   2.505567   2.411290
    12  H    2.690243   2.389488   3.009693   3.102001   2.969140
                   11         12
    11  H    0.000000
    12  H    1.815208   0.000000
 Symmetry turned off by external request.
 Stoichiometry    C3H6O3
 Framework group  C1[X(C3H6O3)]
 Deg. of freedom    30
 Full point group                 C1      NOp   1
 Rotational constants (GHZ):           5.2062256           3.6415466           2.6682506
 Standard basis: 6-31+G(d) (6D, 7F)
   126 basis functions,   216 primitive gaussians,   126 cartesian basis functions
    24 alpha electrons       24 beta electrons
       nuclear repulsion energy       255.6837691843 Hartrees.
 NAtoms=   12 NActive=   12 NUniq=   12 SFac= 1.00D+00 NAtFMM=   60 NAOKFM=F Big=F
 Integral buffers will be    131072 words long.
 Raffenetti 2 integral format.
 Two-electron integral symmetry is turned off.
 One-electron integrals computed using PRISM.
 NBasis=   126 RedAO= T EigKep=  1.12D-04  NBF=   126
 NBsUse=   126 1.00D-06 EigRej= -1.00D+00 NBFU=   126
 Initial guess from the checkpoint file:  "/scratch/bell/zhao922/YARP/paper-example/KHP-network/pp_0/IRC-folder/Gau-116546.chk"
 B after Tr=    -0.078468    0.078306    0.007266
         Rot=    1.000000    0.000293   -0.000507   -0.000163 Ang=   0.07 deg.
 ExpMin= 4.38D-02 ExpMax= 5.48D+03 ExpMxC= 8.25D+02 IAcc=3 IRadAn=         5 AccDes= 0.00D+00
 Harris functional with IExCor=  402 and IRadAn=       5 diagonalized for initial guess.
 HarFok:  IExCor=  402 AccDes= 0.00D+00 IRadAn=         5 IDoV= 1 UseB2=F ITyADJ=14
 ICtDFT=  3500011 ScaDFX=  1.000000  1.000000  1.000000  1.000000
 FoFCou: FMM=F IPFlag=           0 FMFlag=      100000 FMFlg1=           0
         NFxFlg=           0 DoJE=T BraDBF=F KetDBF=T FulRan=T
         wScrn=  0.000000 ICntrl=       500 IOpCl=  0 I1Cent=   200000004 NGrid=           0
         NMat0=    1 NMatS0=      1 NMatT0=    0 NMatD0=    1 NMtDS0=    0 NMtDT0=    0
 Symmetry not used in FoFCou.
 Keep R1 ints in memory in canonical form, NReq=47237243.
 Requested convergence on RMS density matrix=1.00D-08 within 128 cycles.
 Requested convergence on MAX density matrix=1.00D-06.
 Requested convergence on             energy=1.00D-06.
 No special actions if energy rises.
 SCF Done:  E(RB3LYP) =  -343.397880595     A.U. after   13 cycles
            NFock= 13  Conv=0.25D-08     -V/T= 2.0090
 DoSCS=F DFT=T ScalE2(SS,OS)=  1.000000  1.000000
 Range of M.O.s used for correlation:     1   126
 NBasis=   126 NAE=    24 NBE=    24 NFC=     0 NFV=     0
 NROrb=    126 NOA=    24 NOB=    24 NVA=   102 NVB=   102

 **** Warning!!: The largest alpha MO coefficient is  0.26438315D+02

 Symmetrizing basis deriv contribution to polar:
 IMax=3 JMax=2 DiffMx= 0.00D+00
 G2DrvN: will do    13 centers at a time, making    1 passes.
 Calling FoFCou, ICntrl=  3107 FMM=F I1Cent=   0 AccDes= 0.00D+00.
 End of G2Drv F.D. properties file   721 does not exist.
 End of G2Drv F.D. properties file   722 does not exist.
 End of G2Drv F.D. properties file   788 does not exist.
          IDoAtm=111111111111
          Differentiating once with respect to nuclear coordinates.
 Keep R1 ints in memory in canonical form, NReq=47193244.
          There are    39 degrees of freedom in the 1st order CPHF.  IDoFFX=6 NUNeed=     0.
     33 vectors produced by pass  0 Test12= 6.28D-15 2.56D-09 XBig12= 1.86D-01 1.88D-01.
 AX will form    33 AO Fock derivatives at one time.
     33 vectors produced by pass  1 Test12= 6.28D-15 2.56D-09 XBig12= 4.00D-02 5.21D-02.
     33 vectors produced by pass  2 Test12= 6.28D-15 2.56D-09 XBig12= 9.09D-04 4.48D-03.
     33 vectors produced by pass  3 Test12= 6.28D-15 2.56D-09 XBig12= 6.95D-06 3.10D-04.
     33 vectors produced by pass  4 Test12= 6.28D-15 2.56D-09 XBig12= 1.32D-08 1.79D-05.
     29 vectors produced by pass  5 Test12= 6.28D-15 2.56D-09 XBig12= 1.62D-11 6.13D-07.
      5 vectors produced by pass  6 Test12= 6.28D-15 2.56D-09 XBig12= 1.66D-14 1.76D-08.
 InvSVY:  IOpt=1 It=  1 EMax= 1.55D-15
 Solved reduced A of dimension   199 with    33 vectors.
 End of Minotr F.D. properties file   721 does not exist.
 End of Minotr F.D. properties file   722 does not exist.
 End of Minotr F.D. properties file   788 does not exist.
 Calling FoFJK, ICntrl=    100127 FMM=F ISym2X=0 I1Cent= 0 IOpClX= 0 NMat=1 NMatS=1 NMatT=0.
 -------------------------------------------------------------------
 Center     Atomic                   Forces (Hartrees/Bohr)
 Number     Number              X              Y              Z
 -------------------------------------------------------------------
      1        6           0.005023561    0.001614946    0.006841009
      2        6           0.002260513    0.001976540   -0.001330247
      3        6          -0.001223216    0.001611380   -0.007633035
      4        8          -0.002701919    0.000899580   -0.000115676
      5        8          -0.000580215   -0.000444468   -0.000515675
      6        8           0.002272226   -0.002796081    0.002314079
      7        1          -0.000755954    0.000149798   -0.000177216
      8        1          -0.003108666   -0.001455843   -0.000689816
      9        1          -0.000778464   -0.000858951   -0.000703798
     10        1          -0.000235381   -0.000397512    0.002365714
     11        1           0.000189603    0.000128668   -0.000085121
     12        1          -0.000362087   -0.000428058   -0.000270219
 -------------------------------------------------------------------
 Cartesian Forces:  Max     0.007633035 RMS     0.002333486
 IRC-IRC-IRC-IRC-IRC-IRC-IRC-IRC-IRC-IRC-IRC-IRC-IRC-IRC-IRC-IRC-IRC-IRC
 Pt  1 Step number   1 out of a maximum of 100
 Modified Bulirsch-Stoer Extrapolation Cycles:
    EPS =    0.000010000000000
      PEZero:  N= 2 I= 1 D=  4.78D-04 Err=  7.97D-04
      PEZero:  N= 3 I= 2 D=  4.78D-04 Err=  5.32D-04
      PEZero:  N= 3 I= 1 D=  9.55D-04 Err=  1.38D-07
 Maximum DWI energy   std dev =  0.000009243 at pt     1
 Maximum DWI gradient std dev =  0.037855901 at pt    28
 CORRECTOR INTEGRATION CONVERGENCE:
   Recorrection delta-x convergence threshold:    0.010000
   Delta-x Convergence Met
 Point Number:   1          Path Number:   1
   CHANGE IN THE REACTION COORDINATE =    0.18321
   NET REACTION COORDINATE UP TO THIS POINT =    0.18321
  # OF POINTS ALONG THE PATH =   1
  # OF STEPS =   1

 Calculating another point on the path.
 IRC-IRC-IRC-IRC-IRC-IRC-IRC-IRC-IRC-IRC-IRC-IRC-IRC-IRC-IRC-IRC-IRC-IRC
                          Input orientation:                          
 ---------------------------------------------------------------------
 Center     Atomic      Atomic             Coordinates (Angstroms)
 Number     Number       Type             X           Y           Z
 ---------------------------------------------------------------------
      1          6           0        0.358032    1.125592   -0.278501
      2          6           0       -0.663046    0.977696    0.766067
      3          6           0       -1.409130    0.009877   -0.240550
      4          8           0        1.313378    0.260824   -0.489625
      5          8           0        1.334414   -0.841023    0.478230
      6          8           0       -1.102639   -1.255743   -0.197941
      7          1           0        0.402424   -1.262210    0.253044
      8          1           0       -1.001066    0.500059   -1.265904
      9          1           0        0.484510    2.010709   -0.900201
     10          1           0       -2.466234    0.325966   -0.338119
     11          1           0       -1.199773    1.910216    0.949203
     12          1           0       -0.332526    0.491903    1.683126
 ---------------------------------------------------------------------
                    Distance matrix (angstroms):
                    1          2          3          4          5
     1  C    0.000000
     2  C    1.468194   0.000000
     3  C    2.090244   1.583222   0.000000
     4  O    1.305788   2.448861   2.745371   0.000000
     5  O    2.322399   2.716696   2.961032   1.466715   0.000000
     6  O    2.794782   2.472004   1.302899   2.867437   2.562895
     7  H    2.446653   2.532904   2.267944   1.923805   1.047240
     8  H    1.792598   2.114546   1.207537   2.452854   3.208578
     9  H    1.089009   2.271662   2.832726   1.979316   3.279449
    10  H    2.935887   2.212570   1.107656   3.783208   4.058721
    11  H    2.132990   1.091424   2.251805   3.332664   3.770044
    12  H    2.174030   1.089144   2.256535   2.735551   2.450949
                    6          7          8          9         10
     6  O    0.000000
     7  H    1.571193   0.000000
     8  H    2.057596   2.717091   0.000000
     9  H    3.698908   3.471126   2.150055   0.000000
    10  H    2.093047   3.331813   1.742932   3.444007   0.000000
    11  H    3.368779   3.621596   2.633387   2.503438   2.402284
    12  H    2.680625   2.379537   3.023870   3.106106   2.943752
                   11         12
    11  H    0.000000
    12  H    1.817243   0.000000
 Symmetry turned off by external request.
 Stoichiometry    C3H6O3
 Framework group  C1[X(C3H6O3)]
 Deg. of freedom    30
 Full point group                 C1      NOp   1
 Rotational constants (GHZ):           5.2012513           3.6443348           2.6665278
 Standard basis: 6-31+G(d) (6D, 7F)
   126 basis functions,   216 primitive gaussians,   126 cartesian basis functions
    24 alpha electrons       24 beta electrons
       nuclear repulsion energy       255.6298270101 Hartrees.
 NAtoms=   12 NActive=   12 NUniq=   12 SFac= 1.00D+00 NAtFMM=   60 NAOKFM=F Big=F
 Integral buffers will be    131072 words long.
 Raffenetti 2 integral format.
 Two-electron integral symmetry is turned off.
 One-electron integrals computed using PRISM.
 NBasis=   126 RedAO= T EigKep=  1.11D-04  NBF=   126
 NBsUse=   126 1.00D-06 EigRej= -1.00D+00 NBFU=   126
 Initial guess from the checkpoint file:  "/scratch/bell/zhao922/YARP/paper-example/KHP-network/pp_0/IRC-folder/Gau-116546.chk"
 B after Tr=    -0.001683   -0.000803    0.000114
         Rot=    1.000000    0.000235   -0.000509   -0.000154 Ang=   0.07 deg.
 ExpMin= 4.38D-02 ExpMax= 5.48D+03 ExpMxC= 8.25D+02 IAcc=3 IRadAn=         5 AccDes= 0.00D+00
 Harris functional with IExCor=  402 and IRadAn=       5 diagonalized for initial guess.
 HarFok:  IExCor=  402 AccDes= 0.00D+00 IRadAn=         5 IDoV= 1 UseB2=F ITyADJ=14
 ICtDFT=  3500011 ScaDFX=  1.000000  1.000000  1.000000  1.000000
 FoFCou: FMM=F IPFlag=           0 FMFlag=      100000 FMFlg1=           0
         NFxFlg=           0 DoJE=T BraDBF=F KetDBF=T FulRan=T
         wScrn=  0.000000 ICntrl=       500 IOpCl=  0 I1Cent=   200000004 NGrid=           0
         NMat0=    1 NMatS0=      1 NMatT0=    0 NMatD0=    1 NMtDS0=    0 NMtDT0=    0
 Symmetry not used in FoFCou.
 Keep R1 ints in memory in canonical form, NReq=47237243.
 Requested convergence on RMS density matrix=1.00D-08 within 128 cycles.
 Requested convergence on MAX density matrix=1.00D-06.
 Requested convergence on             energy=1.00D-06.
 No special actions if energy rises.
 SCF Done:  E(RB3LYP) =  -343.399348945     A.U. after   12 cycles
            NFock= 12  Conv=0.97D-08     -V/T= 2.0090
 DoSCS=F DFT=T ScalE2(SS,OS)=  1.000000  1.000000
 Range of M.O.s used for correlation:     1   126
 NBasis=   126 NAE=    24 NBE=    24 NFC=     0 NFV=     0
 NROrb=    126 NOA=    24 NOB=    24 NVA=   102 NVB=   102

 **** Warning!!: The largest alpha MO coefficient is  0.25432114D+02

 Symmetrizing basis deriv contribution to polar:
 IMax=3 JMax=2 DiffMx= 0.00D+00
 G2DrvN: will do    13 centers at a time, making    1 passes.
 Calling FoFCou, ICntrl=  3107 FMM=F I1Cent=   0 AccDes= 0.00D+00.
 End of G2Drv F.D. properties file   721 does not exist.
 End of G2Drv F.D. properties file   722 does not exist.
 End of G2Drv F.D. properties file   788 does not exist.
          IDoAtm=111111111111
          Differentiating once with respect to nuclear coordinates.
 Keep R1 ints in memory in canonical form, NReq=47193244.
          There are    39 degrees of freedom in the 1st order CPHF.  IDoFFX=6 NUNeed=     0.
     33 vectors produced by pass  0 Test12= 6.28D-15 2.56D-09 XBig12= 1.84D-01 1.87D-01.
 AX will form    33 AO Fock derivatives at one time.
     33 vectors produced by pass  1 Test12= 6.28D-15 2.56D-09 XBig12= 4.33D-02 5.61D-02.
     33 vectors produced by pass  2 Test12= 6.28D-15 2.56D-09 XBig12= 9.92D-04 5.00D-03.
     33 vectors produced by pass  3 Test12= 6.28D-15 2.56D-09 XBig12= 7.40D-06 3.46D-04.
     33 vectors produced by pass  4 Test12= 6.28D-15 2.56D-09 XBig12= 1.47D-08 1.62D-05.
     30 vectors produced by pass  5 Test12= 6.28D-15 2.56D-09 XBig12= 1.94D-11 6.78D-07.
      6 vectors produced by pass  6 Test12= 6.28D-15 2.56D-09 XBig12= 1.91D-14 1.94D-08.
 InvSVY:  IOpt=1 It=  1 EMax= 2.22D-15
 Solved reduced A of dimension   201 with    33 vectors.
 End of Minotr F.D. properties file   721 does not exist.
 End of Minotr F.D. properties file   722 does not exist.
 End of Minotr F.D. properties file   788 does not exist.
 Calling FoFJK, ICntrl=    100127 FMM=F ISym2X=0 I1Cent= 0 IOpClX= 0 NMat=1 NMatS=1 NMatT=0.
 -------------------------------------------------------------------
 Center     Atomic                   Forces (Hartrees/Bohr)
 Number     Number              X              Y              Z
 -------------------------------------------------------------------
      1        6           0.008461899    0.002866570    0.011579612
      2        6           0.004240116    0.003576801   -0.002555434
      3        6          -0.002907814    0.001693173   -0.012858867
      4        8          -0.004290959    0.001413273   -0.000078860
      5        8          -0.001384110   -0.000928183   -0.001023022
      6        8           0.004202520   -0.004215811    0.004134512
      7        1          -0.001140552    0.000286285   -0.000304161
      8        1          -0.005150292   -0.002202319   -0.001122258
      9        1          -0.001190193   -0.001234366   -0.001120312
     10        1          -0.000485676   -0.000716801    0.004016928
     11        1           0.000321372    0.000224198   -0.000169191
     12        1          -0.000676309   -0.000762821   -0.000498948
 -------------------------------------------------------------------
 Cartesian Forces:  Max     0.012858867 RMS     0.003948675
 IRC-IRC-IRC-IRC-IRC-IRC-IRC-IRC-IRC-IRC-IRC-IRC-IRC-IRC-IRC-IRC-IRC-IRC
 Pt  2 Step number   1 out of a maximum of 100
 Modified Bulirsch-Stoer Extrapolation Cycles:
    EPS =    0.000010000000000
      PEZero:  N= 2 I= 1 D=  9.55D-04 Err=  4.11D-05
      PEZero:  N= 3 I= 2 D=  9.55D-04 Err=  2.73D-05
      PEZero:  N= 3 I= 1 D=  1.91D-03 Err=  1.66D-07
 Maximum DWI energy   std dev =  0.000008589 at pt    18
 Maximum DWI gradient std dev =  0.025870322 at pt    24
 CORRECTOR INTEGRATION CONVERGENCE:
   Recorrection delta-x convergence threshold:    0.010000
   Delta-x Convergence Met
 Point Number:   2          Path Number:   1
   CHANGE IN THE REACTION COORDINATE =    0.18321
   NET REACTION COORDINATE UP TO THIS POINT =    0.36642
  # OF POINTS ALONG THE PATH =   2
  # OF STEPS =   1

 Calculating another point on the path.
 IRC-IRC-IRC-IRC-IRC-IRC-IRC-IRC-IRC-IRC-IRC-IRC-IRC-IRC-IRC-IRC-IRC-IRC
                          Input orientation:                          
 ---------------------------------------------------------------------
 Center     Atomic      Atomic             Coordinates (Angstroms)
 Number     Number       Type             X           Y           Z
 ---------------------------------------------------------------------
      1          6           0        0.364986    1.127925   -0.268870
      2          6           0       -0.659357    0.980787    0.763802
      3          6           0       -1.411602    0.010815   -0.251236
      4          8           0        1.310808    0.261673   -0.489636
      5          8           0        1.333428   -0.841657    0.477549
      6          8           0       -1.099920   -1.258208   -0.195313
      7          1           0        0.391990   -1.259212    0.250050
      8          1           0       -1.051544    0.479215   -1.275736
      9          1           0        0.473506    2.000495   -0.911501
     10          1           0       -2.474699    0.319602   -0.298742
     11          1           0       -1.196638    1.912546    0.947404
     12          1           0       -0.339299    0.483953    1.678464
 ---------------------------------------------------------------------
                    Distance matrix (angstroms):
                    1          2          3          4          5
     1  C    0.000000
     2  C    1.461964   0.000000
     3  C    2.098692   1.592803   0.000000
     4  O    1.301426   2.443313   2.744319   0.000000
     5  O    2.318248   2.715590   2.965304   1.467412   0.000000
     6  O    2.800891   2.475297   1.307934   2.865009   2.558796
     7  H    2.443037   2.527225   2.262123   1.924696   1.054710
     8  H    1.855036   2.136610   1.182642   2.499197   3.241420
     9  H    1.089096   2.264911   2.819293   1.975487   3.278225
    10  H    2.952640   2.204911   1.108052   3.790760   4.056227
    11  H    2.129230   1.091126   2.258214   3.328325   3.769301
    12  H    2.168600   1.088985   2.257751   2.733664   2.448970
                    6          7          8          9         10
     6  O    0.000000
     7  H    1.556966   0.000000
     8  H    2.046532   2.726525   0.000000
     9  H    3.688867   3.461435   2.184660   0.000000
    10  H    2.095280   3.318392   1.733599   3.448592   0.000000
    11  H    3.371771   3.615258   2.649121   2.500528   2.392444
    12  H    2.669216   2.369341   3.038851   3.109416   2.914839
                   11         12
    11  H    0.000000
    12  H    1.819439   0.000000
 Symmetry turned off by external request.
 Stoichiometry    C3H6O3
 Framework group  C1[X(C3H6O3)]
 Deg. of freedom    30
 Full point group                 C1      NOp   1
 Rotational constants (GHZ):           5.1959659           3.6466491           2.6643640
 Standard basis: 6-31+G(d) (6D, 7F)
   126 basis functions,   216 primitive gaussians,   126 cartesian basis functions
    24 alpha electrons       24 beta electrons
       nuclear repulsion energy       255.5636523206 Hartrees.
 NAtoms=   12 NActive=   12 NUniq=   12 SFac= 1.00D+00 NAtFMM=   60 NAOKFM=F Big=F
 Integral buffers will be    131072 words long.
 Raffenetti 2 integral format.
 Two-electron integral symmetry is turned off.
 One-electron integrals computed using PRISM.
 NBasis=   126 RedAO= T EigKep=  1.10D-04  NBF=   126
 NBsUse=   126 1.00D-06 EigRej= -1.00D+00 NBFU=   126
 Initial guess from the checkpoint file:  "/scratch/bell/zhao922/YARP/paper-example/KHP-network/pp_0/IRC-folder/Gau-116546.chk"
 B after Tr=    -0.001626   -0.000761    0.000121
         Rot=    1.000000    0.000194   -0.000503   -0.000148 Ang=   0.06 deg.
 ExpMin= 4.38D-02 ExpMax= 5.48D+03 ExpMxC= 8.25D+02 IAcc=3 IRadAn=         5 AccDes= 0.00D+00
 Harris functional with IExCor=  402 and IRadAn=       5 diagonalized for initial guess.
 HarFok:  IExCor=  402 AccDes= 0.00D+00 IRadAn=         5 IDoV= 1 UseB2=F ITyADJ=14
 ICtDFT=  3500011 ScaDFX=  1.000000  1.000000  1.000000  1.000000
 FoFCou: FMM=F IPFlag=           0 FMFlag=      100000 FMFlg1=           0
         NFxFlg=           0 DoJE=T BraDBF=F KetDBF=T FulRan=T
         wScrn=  0.000000 ICntrl=       500 IOpCl=  0 I1Cent=   200000004 NGrid=           0
         NMat0=    1 NMatS0=      1 NMatT0=    0 NMatD0=    1 NMtDS0=    0 NMtDT0=    0
 Symmetry not used in FoFCou.
 Keep R1 ints in memory in canonical form, NReq=47237243.
 Requested convergence on RMS density matrix=1.00D-08 within 128 cycles.
 Requested convergence on MAX density matrix=1.00D-06.
 Requested convergence on             energy=1.00D-06.
 No special actions if energy rises.
 SCF Done:  E(RB3LYP) =  -343.401393369     A.U. after   12 cycles
            NFock= 12  Conv=0.88D-08     -V/T= 2.0090
 DoSCS=F DFT=T ScalE2(SS,OS)=  1.000000  1.000000
 Range of M.O.s used for correlation:     1   126
 NBasis=   126 NAE=    24 NBE=    24 NFC=     0 NFV=     0
 NROrb=    126 NOA=    24 NOB=    24 NVA=   102 NVB=   102

 **** Warning!!: The largest alpha MO coefficient is  0.25009724D+02

 Symmetrizing basis deriv contribution to polar:
 IMax=3 JMax=2 DiffMx= 0.00D+00
 G2DrvN: will do    13 centers at a time, making    1 passes.
 Calling FoFCou, ICntrl=  3107 FMM=F I1Cent=   0 AccDes= 0.00D+00.
 End of G2Drv F.D. properties file   721 does not exist.
 End of G2Drv F.D. properties file   722 does not exist.
 End of G2Drv F.D. properties file   788 does not exist.
          IDoAtm=111111111111
          Differentiating once with respect to nuclear coordinates.
 Keep R1 ints in memory in canonical form, NReq=47193244.
          There are    39 degrees of freedom in the 1st order CPHF.  IDoFFX=6 NUNeed=     0.
     33 vectors produced by pass  0 Test12= 6.28D-15 2.56D-09 XBig12= 1.80D-01 1.83D-01.
 AX will form    33 AO Fock derivatives at one time.
     33 vectors produced by pass  1 Test12= 6.28D-15 2.56D-09 XBig12= 4.57D-02 6.12D-02.
     33 vectors produced by pass  2 Test12= 6.28D-15 2.56D-09 XBig12= 1.05D-03 5.50D-03.
     33 vectors produced by pass  3 Test12= 6.28D-15 2.56D-09 XBig12= 7.60D-06 3.67D-04.
     33 vectors produced by pass  4 Test12= 6.28D-15 2.56D-09 XBig12= 1.59D-08 1.55D-05.
     30 vectors produced by pass  5 Test12= 6.28D-15 2.56D-09 XBig12= 2.28D-11 7.34D-07.
      5 vectors produced by pass  6 Test12= 6.28D-15 2.56D-09 XBig12= 2.20D-14 1.98D-08.
 InvSVY:  IOpt=1 It=  1 EMax= 1.44D-15
 Solved reduced A of dimension   200 with    33 vectors.
 End of Minotr F.D. properties file   721 does not exist.
 End of Minotr F.D. properties file   722 does not exist.
 End of Minotr F.D. properties file   788 does not exist.
 Calling FoFJK, ICntrl=    100127 FMM=F ISym2X=0 I1Cent= 0 IOpClX= 0 NMat=1 NMatS=1 NMatT=0.
 -------------------------------------------------------------------
 Center     Atomic                   Forces (Hartrees/Bohr)
 Number     Number              X              Y              Z
 -------------------------------------------------------------------
      1        6           0.010468000    0.003991616    0.014630101
      2        6           0.006152926    0.005068605   -0.003630644
      3        6          -0.005374884    0.000418915   -0.016255193
      4        8          -0.004889669    0.001522503    0.000039505
      5        8          -0.002190009   -0.001363599   -0.001464396
      6        8           0.005825559   -0.004559881    0.005577123
      7        1          -0.001324114    0.000362313   -0.000436278
      8        1          -0.006108403   -0.002234990   -0.001526571
      9        1          -0.001384147   -0.001416668   -0.001217896
     10        1          -0.000572424   -0.001015961    0.005249350
     11        1           0.000386794    0.000282692   -0.000258758
     12        1          -0.000989629   -0.001055547   -0.000706344
 -------------------------------------------------------------------
 Cartesian Forces:  Max     0.016255193 RMS     0.005039744
 IRC-IRC-IRC-IRC-IRC-IRC-IRC-IRC-IRC-IRC-IRC-IRC-IRC-IRC-IRC-IRC-IRC-IRC
 Pt  3 Step number   1 out of a maximum of 100
 Modified Bulirsch-Stoer Extrapolation Cycles:
    EPS =    0.000010000000000
      PEZero:  N= 2 I= 1 D=  9.55D-04 Err=  4.80D-05
      PEZero:  N= 3 I= 2 D=  9.55D-04 Err=  3.19D-05
      PEZero:  N= 3 I= 1 D=  1.91D-03 Err=  1.56D-07
 Maximum DWI energy   std dev =  0.000006881 at pt    27
 Maximum DWI gradient std dev =  0.015898825 at pt    24
 CORRECTOR INTEGRATION CONVERGENCE:
   Recorrection delta-x convergence threshold:    0.010000
   Delta-x Convergence Met
 Point Number:   3          Path Number:   1
   CHANGE IN THE REACTION COORDINATE =    0.18322
   NET REACTION COORDINATE UP TO THIS POINT =    0.54964
  # OF POINTS ALONG THE PATH =   3
  # OF STEPS =   1

 Calculating another point on the path.
 IRC-IRC-IRC-IRC-IRC-IRC-IRC-IRC-IRC-IRC-IRC-IRC-IRC-IRC-IRC-IRC-IRC-IRC
                          Input orientation:                          
 ---------------------------------------------------------------------
 Center     Atomic      Atomic             Coordinates (Angstroms)
 Number     Number       Type             X           Y           Z
 ---------------------------------------------------------------------
      1          6           0        0.371849    1.130586   -0.259156
      2          6           0       -0.655059    0.984330    0.761268
      3          6           0       -1.415404    0.010546   -0.262079
      4          8           0        1.308515    0.262382   -0.489576
      5          8           0        1.332229   -0.842387    0.476778
      6          8           0       -1.096909   -1.260280   -0.192481
      7          1           0        0.382188   -1.256373    0.246465
      8          1           0       -1.099152    0.462637   -1.286725
      9          1           0        0.463284    1.990854   -0.920980
     10          1           0       -2.481995    0.311980   -0.257160
     11          1           0       -1.193667    1.914865    0.945196
     12          1           0       -0.347341    0.475182    1.673100
 ---------------------------------------------------------------------
                    Distance matrix (angstroms):
                    1          2          3          4          5
     1  C    0.000000
     2  C    1.455059   0.000000
     3  C    2.109212   1.604250   0.000000
     4  O    1.297773   2.437508   2.744980   0.000000
     5  O    2.314422   2.714248   2.970335   1.467964   0.000000
     6  O    2.806766   2.478536   1.311976   2.862313   2.554067
     7  H    2.439945   2.522232   2.257219   1.925216   1.061606
     8  H    1.914654   2.159550   1.163745   2.544093   3.274850
     9  H    1.089235   2.256931   2.808067   1.971837   3.276591
    10  H    2.968930   2.197031   1.108379   3.797953   4.052103
    11  H    2.125181   1.090790   2.265637   3.324182   3.768554
    12  H    2.163423   1.088742   2.258664   2.732089   2.447065
                    6          7          8          9         10
     6  O    0.000000
     7  H    1.542861   0.000000
     8  H    2.041033   2.738619   0.000000
     9  H    3.678966   3.451665   2.215948   0.000000
    10  H    2.096342   3.304076   1.730594   3.454554   0.000000
    11  H    3.374198   3.609472   2.664464   2.496772   2.382160
    12  H    2.655951   2.359191   3.053840   3.111852   2.882583
                   11         12
    11  H    0.000000
    12  H    1.821757   0.000000
 Symmetry turned off by external request.
 Stoichiometry    C3H6O3
 Framework group  C1[X(C3H6O3)]
 Deg. of freedom    30
 Full point group                 C1      NOp   1
 Rotational constants (GHZ):           5.1904814           3.6483350           2.6616717
 Standard basis: 6-31+G(d) (6D, 7F)
   126 basis functions,   216 primitive gaussians,   126 cartesian basis functions
    24 alpha electrons       24 beta electrons
       nuclear repulsion energy       255.4835749930 Hartrees.
 NAtoms=   12 NActive=   12 NUniq=   12 SFac= 1.00D+00 NAtFMM=   60 NAOKFM=F Big=F
 Integral buffers will be    131072 words long.
 Raffenetti 2 integral format.
 Two-electron integral symmetry is turned off.
 One-electron integrals computed using PRISM.
 NBasis=   126 RedAO= T EigKep=  1.09D-04  NBF=   126
 NBsUse=   126 1.00D-06 EigRej= -1.00D+00 NBFU=   126
 Initial guess from the checkpoint file:  "/scratch/bell/zhao922/YARP/paper-example/KHP-network/pp_0/IRC-folder/Gau-116546.chk"
 B after Tr=    -0.001548   -0.000711    0.000137
         Rot=    1.000000    0.000148   -0.000490   -0.000143 Ang=   0.06 deg.
 ExpMin= 4.38D-02 ExpMax= 5.48D+03 ExpMxC= 8.25D+02 IAcc=3 IRadAn=         5 AccDes= 0.00D+00
 Harris functional with IExCor=  402 and IRadAn=       5 diagonalized for initial guess.
 HarFok:  IExCor=  402 AccDes= 0.00D+00 IRadAn=         5 IDoV= 1 UseB2=F ITyADJ=14
 ICtDFT=  3500011 ScaDFX=  1.000000  1.000000  1.000000  1.000000
 FoFCou: FMM=F IPFlag=           0 FMFlag=      100000 FMFlg1=           0
         NFxFlg=           0 DoJE=T BraDBF=F KetDBF=T FulRan=T
         wScrn=  0.000000 ICntrl=       500 IOpCl=  0 I1Cent=   200000004 NGrid=           0
         NMat0=    1 NMatS0=      1 NMatT0=    0 NMatD0=    1 NMtDS0=    0 NMtDT0=    0
 Symmetry not used in FoFCou.
 Keep R1 ints in memory in canonical form, NReq=47237243.
 Requested convergence on RMS density matrix=1.00D-08 within 128 cycles.
 Requested convergence on MAX density matrix=1.00D-06.
 Requested convergence on             energy=1.00D-06.
 No special actions if energy rises.
 SCF Done:  E(RB3LYP) =  -343.403770354     A.U. after   12 cycles
            NFock= 12  Conv=0.74D-08     -V/T= 2.0090
 DoSCS=F DFT=T ScalE2(SS,OS)=  1.000000  1.000000
 Range of M.O.s used for correlation:     1   126
 NBasis=   126 NAE=    24 NBE=    24 NFC=     0 NFV=     0
 NROrb=    126 NOA=    24 NOB=    24 NVA=   102 NVB=   102

 **** Warning!!: The largest alpha MO coefficient is  0.24616080D+02

 Symmetrizing basis deriv contribution to polar:
 IMax=3 JMax=2 DiffMx= 0.00D+00
 G2DrvN: will do    13 centers at a time, making    1 passes.
 Calling FoFCou, ICntrl=  3107 FMM=F I1Cent=   0 AccDes= 0.00D+00.
 End of G2Drv F.D. properties file   721 does not exist.
 End of G2Drv F.D. properties file   722 does not exist.
 End of G2Drv F.D. properties file   788 does not exist.
          IDoAtm=111111111111
          Differentiating once with respect to nuclear coordinates.
 Keep R1 ints in memory in canonical form, NReq=47193244.
          There are    39 degrees of freedom in the 1st order CPHF.  IDoFFX=6 NUNeed=     0.
     33 vectors produced by pass  0 Test12= 6.28D-15 2.56D-09 XBig12= 1.76D-01 1.76D-01.
 AX will form    33 AO Fock derivatives at one time.
     33 vectors produced by pass  1 Test12= 6.28D-15 2.56D-09 XBig12= 4.72D-02 6.54D-02.
     33 vectors produced by pass  2 Test12= 6.28D-15 2.56D-09 XBig12= 1.09D-03 5.93D-03.
     33 vectors produced by pass  3 Test12= 6.28D-15 2.56D-09 XBig12= 7.56D-06 3.67D-04.
     33 vectors produced by pass  4 Test12= 6.28D-15 2.56D-09 XBig12= 1.67D-08 1.52D-05.
     30 vectors produced by pass  5 Test12= 6.28D-15 2.56D-09 XBig12= 2.58D-11 8.14D-07.
      7 vectors produced by pass  6 Test12= 6.28D-15 2.56D-09 XBig12= 2.60D-14 1.75D-08.
 InvSVY:  IOpt=1 It=  1 EMax= 1.78D-15
 Solved reduced A of dimension   202 with    33 vectors.
 End of Minotr F.D. properties file   721 does not exist.
 End of Minotr F.D. properties file   722 does not exist.
 End of Minotr F.D. properties file   788 does not exist.
 Calling FoFJK, ICntrl=    100127 FMM=F ISym2X=0 I1Cent= 0 IOpClX= 0 NMat=1 NMatS=1 NMatT=0.
 -------------------------------------------------------------------
 Center     Atomic                   Forces (Hartrees/Bohr)
 Number     Number              X              Y              Z
 -------------------------------------------------------------------
      1        6           0.011350532    0.004901253    0.016137606
      2        6           0.007733895    0.006330559   -0.004350788
      3        6          -0.008110442   -0.001593348   -0.018073552
      4        8          -0.004670239    0.001340417    0.000218494
      5        8          -0.002928492   -0.001740790   -0.001839613
      6        8           0.007038506   -0.004027555    0.006502336
      7        1          -0.001299342    0.000384160   -0.000549872
      8        1          -0.006403274   -0.001963892   -0.001719664
      9        1          -0.001372390   -0.001409519   -0.001088185
     10        1          -0.000478845   -0.001287188    0.005975349
     11        1           0.000401256    0.000315046   -0.000339814
     12        1          -0.001261165   -0.001249145   -0.000872297
 -------------------------------------------------------------------
 Cartesian Forces:  Max     0.018073552 RMS     0.005702447
 IRC-IRC-IRC-IRC-IRC-IRC-IRC-IRC-IRC-IRC-IRC-IRC-IRC-IRC-IRC-IRC-IRC-IRC
 Pt  4 Step number   1 out of a maximum of 100
 Modified Bulirsch-Stoer Extrapolation Cycles:
    EPS =    0.000010000000000
      PEZero:  N= 2 I= 1 D=  9.55D-04 Err=  5.22D-05
      PEZero:  N= 3 I= 2 D=  9.55D-04 Err=  3.47D-05
      PEZero:  N= 3 I= 1 D=  1.91D-03 Err=  1.34D-07
 Maximum DWI energy   std dev =  0.000005572 at pt    27
 Maximum DWI gradient std dev =  0.012195549 at pt    47
 CORRECTOR INTEGRATION CONVERGENCE:
   Recorrection delta-x convergence threshold:    0.010000
   Delta-x Convergence Met
 Point Number:   4          Path Number:   1
   CHANGE IN THE REACTION COORDINATE =    0.18322
   NET REACTION COORDINATE UP TO THIS POINT =    0.73286
  # OF POINTS ALONG THE PATH =   4
  # OF STEPS =   1

 Calculating another point on the path.
 IRC-IRC-IRC-IRC-IRC-IRC-IRC-IRC-IRC-IRC-IRC-IRC-IRC-IRC-IRC-IRC-IRC-IRC
                          Input orientation:                          
 ---------------------------------------------------------------------
 Center     Atomic      Atomic             Coordinates (Angstroms)
 Number     Number       Type             X           Y           Z
 ---------------------------------------------------------------------
      1          6           0        0.378567    1.133574   -0.249501
      2          6           0       -0.650203    0.988348    0.758569
      3          6           0       -1.420596    0.008982   -0.272961
      4          8           0        1.306595    0.262919   -0.489438
      5          8           0        1.330820   -0.843219    0.475907
      6          8           0       -1.093643   -1.261863   -0.189524
      7          1           0        0.373641   -1.253785    0.242349
      8          1           0       -1.144184    0.449566   -1.298021
      9          1           0        0.454291    1.982206   -0.928378
     10          1           0       -2.487890    0.303068   -0.214341
     11          1           0       -1.190912    1.917211    0.942602
     12          1           0       -0.356601    0.465881    1.667131
 ---------------------------------------------------------------------
                    Distance matrix (angstroms):
                    1          2          3          4          5
     1  C    0.000000
     2  C    1.447641   0.000000
     3  C    2.121850   1.617628   0.000000
     4  O    1.294930   2.431630   2.747529   0.000000
     5  O    2.310998   2.712745   2.976128   1.468338   0.000000
     6  O    2.812316   2.481728   1.314880   2.859380   2.548741
     7  H    2.437504   2.518313   2.253755   1.925177   1.067382
     8  H    1.971302   2.182629   1.149463   2.587462   3.308134
     9  H    1.089396   2.247988   2.799712   1.968512   3.274652
    10  H    2.984553   2.189351   1.108621   3.804656   4.046352
    11  H    2.120958   1.090422   2.274134   3.320386   3.767879
    12  H    2.158650   1.088421   2.259381   2.730971   2.445434
                    6          7          8          9         10
     6  O    0.000000
     7  H    1.529543   0.000000
     8  H    2.039684   2.752805   0.000000
     9  H    3.669604   3.442201   2.245160   0.000000
    10  H    2.096080   3.289486   1.732447   3.462049   0.000000
    11  H    3.376046   3.604635   2.678910   2.492284   2.371946
    12  H    2.641117   2.349576   3.068010   3.113431   2.847603
                   11         12
    11  H    0.000000
    12  H    1.824110   0.000000
 Symmetry turned off by external request.
 Stoichiometry    C3H6O3
 Framework group  C1[X(C3H6O3)]
 Deg. of freedom    30
 Full point group                 C1      NOp   1
 Rotational constants (GHZ):           5.1848472           3.6491562           2.6583735
 Standard basis: 6-31+G(d) (6D, 7F)
   126 basis functions,   216 primitive gaussians,   126 cartesian basis functions
    24 alpha electrons       24 beta electrons
       nuclear repulsion energy       255.3894638795 Hartrees.
 NAtoms=   12 NActive=   12 NUniq=   12 SFac= 1.00D+00 NAtFMM=   60 NAOKFM=F Big=F
 Integral buffers will be    131072 words long.
 Raffenetti 2 integral format.
 Two-electron integral symmetry is turned off.
 One-electron integrals computed using PRISM.
 NBasis=   126 RedAO= T EigKep=  1.08D-04  NBF=   126
 NBsUse=   126 1.00D-06 EigRej= -1.00D+00 NBFU=   126
 Initial guess from the checkpoint file:  "/scratch/bell/zhao922/YARP/paper-example/KHP-network/pp_0/IRC-folder/Gau-116546.chk"
 B after Tr=    -0.001451   -0.000662    0.000161
         Rot=    1.000000    0.000103   -0.000473   -0.000139 Ang=   0.06 deg.
 ExpMin= 4.38D-02 ExpMax= 5.48D+03 ExpMxC= 8.25D+02 IAcc=3 IRadAn=         5 AccDes= 0.00D+00
 Harris functional with IExCor=  402 and IRadAn=       5 diagonalized for initial guess.
 HarFok:  IExCor=  402 AccDes= 0.00D+00 IRadAn=         5 IDoV= 1 UseB2=F ITyADJ=14
 ICtDFT=  3500011 ScaDFX=  1.000000  1.000000  1.000000  1.000000
 FoFCou: FMM=F IPFlag=           0 FMFlag=      100000 FMFlg1=           0
         NFxFlg=           0 DoJE=T BraDBF=F KetDBF=T FulRan=T
         wScrn=  0.000000 ICntrl=       500 IOpCl=  0 I1Cent=   200000004 NGrid=           0
         NMat0=    1 NMatS0=      1 NMatT0=    0 NMatD0=    1 NMtDS0=    0 NMtDT0=    0
 Symmetry not used in FoFCou.
 Keep R1 ints in memory in canonical form, NReq=47237243.
 Requested convergence on RMS density matrix=1.00D-08 within 128 cycles.
 Requested convergence on MAX density matrix=1.00D-06.
 Requested convergence on             energy=1.00D-06.
 No special actions if energy rises.
 SCF Done:  E(RB3LYP) =  -343.406294769     A.U. after   12 cycles
            NFock= 12  Conv=0.61D-08     -V/T= 2.0090
 DoSCS=F DFT=T ScalE2(SS,OS)=  1.000000  1.000000
 Range of M.O.s used for correlation:     1   126
 NBasis=   126 NAE=    24 NBE=    24 NFC=     0 NFV=     0
 NROrb=    126 NOA=    24 NOB=    24 NVA=   102 NVB=   102

 **** Warning!!: The largest alpha MO coefficient is  0.24779064D+02

 Symmetrizing basis deriv contribution to polar:
 IMax=3 JMax=2 DiffMx= 0.00D+00
 G2DrvN: will do    13 centers at a time, making    1 passes.
 Calling FoFCou, ICntrl=  3107 FMM=F I1Cent=   0 AccDes= 0.00D+00.
 End of G2Drv F.D. properties file   721 does not exist.
 End of G2Drv F.D. properties file   722 does not exist.
 End of G2Drv F.D. properties file   788 does not exist.
          IDoAtm=111111111111
          Differentiating once with respect to nuclear coordinates.
 Keep R1 ints in memory in canonical form, NReq=47193244.
          There are    39 degrees of freedom in the 1st order CPHF.  IDoFFX=6 NUNeed=     0.
     33 vectors produced by pass  0 Test12= 6.28D-15 2.56D-09 XBig12= 1.71D-01 1.65D-01.
 AX will form    33 AO Fock derivatives at one time.
     33 vectors produced by pass  1 Test12= 6.28D-15 2.56D-09 XBig12= 4.79D-02 6.87D-02.
     33 vectors produced by pass  2 Test12= 6.28D-15 2.56D-09 XBig12= 1.09D-03 6.30D-03.
     33 vectors produced by pass  3 Test12= 6.28D-15 2.56D-09 XBig12= 7.32D-06 3.49D-04.
     33 vectors produced by pass  4 Test12= 6.28D-15 2.56D-09 XBig12= 1.64D-08 1.58D-05.
     30 vectors produced by pass  5 Test12= 6.28D-15 2.56D-09 XBig12= 2.58D-11 7.34D-07.
      8 vectors produced by pass  6 Test12= 6.28D-15 2.56D-09 XBig12= 2.70D-14 1.81D-08.
 InvSVY:  IOpt=1 It=  1 EMax= 1.33D-15
 Solved reduced A of dimension   203 with    33 vectors.
 End of Minotr F.D. properties file   721 does not exist.
 End of Minotr F.D. properties file   722 does not exist.
 End of Minotr F.D. properties file   788 does not exist.
 Calling FoFJK, ICntrl=    100127 FMM=F ISym2X=0 I1Cent= 0 IOpClX= 0 NMat=1 NMatS=1 NMatT=0.
 -------------------------------------------------------------------
 Center     Atomic                   Forces (Hartrees/Bohr)
 Number     Number              X              Y              Z
 -------------------------------------------------------------------
      1        6           0.011412943    0.005584432    0.016372215
      2        6           0.008826806    0.007336716   -0.004644477
      3        6          -0.010732660   -0.003915371   -0.018504037
      4        8          -0.003848387    0.000956259    0.000417134
      5        8          -0.003514446   -0.002048302   -0.002138231
      6        8           0.007763611   -0.002932146    0.006847908
      7        1          -0.001081445    0.000363029   -0.000623940
      8        1          -0.006264097   -0.001601843   -0.001731602
      9        1          -0.001190948   -0.001246617   -0.000819377
     10        1          -0.000289276   -0.001503865    0.006208726
     11        1           0.000381825    0.000336245   -0.000401835
     12        1          -0.001463927   -0.001328536   -0.000982482
 -------------------------------------------------------------------
 Cartesian Forces:  Max     0.018504037 RMS     0.006020402
 IRC-IRC-IRC-IRC-IRC-IRC-IRC-IRC-IRC-IRC-IRC-IRC-IRC-IRC-IRC-IRC-IRC-IRC
 Pt  5 Step number   1 out of a maximum of 100
 Modified Bulirsch-Stoer Extrapolation Cycles:
    EPS =    0.000010000000000
      PEZero:  N= 2 I= 1 D=  9.55D-04 Err=  5.59D-05
      PEZero:  N= 3 I= 2 D=  9.55D-04 Err=  3.72D-05
      PEZero:  N= 3 I= 1 D=  1.91D-03 Err=  1.08D-07
 Maximum DWI energy   std dev =  0.000004661 at pt    27
 Maximum DWI gradient std dev =  0.010814045 at pt    71
 CORRECTOR INTEGRATION CONVERGENCE:
   Recorrection delta-x convergence threshold:    0.010000
   Delta-x Convergence Met
 Point Number:   5          Path Number:   1
   CHANGE IN THE REACTION COORDINATE =    0.18321
   NET REACTION COORDINATE UP TO THIS POINT =    0.91607
  # OF POINTS ALONG THE PATH =   5
  # OF STEPS =   1

 Calculating another point on the path.
 IRC-IRC-IRC-IRC-IRC-IRC-IRC-IRC-IRC-IRC-IRC-IRC-IRC-IRC-IRC-IRC-IRC-IRC
                          Input orientation:                          
 ---------------------------------------------------------------------
 Center     Atomic      Atomic             Coordinates (Angstroms)
 Number     Number       Type             X           Y           Z
 ---------------------------------------------------------------------
      1          6           0        0.385122    1.136907   -0.240031
      2          6           0       -0.644867    0.992887    0.755818
      3          6           0       -1.427231    0.006031   -0.283733
      4          8           0        1.305136    0.263253   -0.489216
      5          8           0        1.329216   -0.844162    0.474929
      6          8           0       -1.090187   -1.262893   -0.186545
      7          1           0        0.367104   -1.251542    0.237857
      8          1           0       -1.186912    0.439184   -1.309061
      9          1           0        0.447015    1.974972   -0.933519
     10          1           0       -2.492336    0.292896   -0.171270
     11          1           0       -1.188388    1.919684    0.939661
     12          1           0       -0.366979    0.456377    1.660672
 ---------------------------------------------------------------------
                    Distance matrix (angstroms):
                    1          2          3          4          5
     1  C    0.000000
     2  C    1.439908   0.000000
     3  C    2.136684   1.632986   0.000000
     4  O    1.292977   2.425899   2.752129   0.000000
     5  O    2.308054   2.711208   2.982683   1.468511   0.000000
     6  O    2.817523   2.484934   1.316515   2.856274   2.542910
     7  H    2.435855   2.515915   2.252373   1.924355   1.071365
     8  H    2.025077   2.205476   1.138716   2.629334   3.340733
     9  H    1.089545   2.238427   2.794951   1.965644   3.272540
    10  H    2.999475   2.182343   1.108777   3.810874   4.039150
    11  H    2.116683   1.090031   2.283814   3.317094   3.767379
    12  H    2.154403   1.088037   2.260013   2.730437   2.444272
                    6          7          8          9         10
     6  O    0.000000
     7  H    1.517874   0.000000
     8  H    2.041192   2.768840   0.000000
     9  H    3.661247   3.433497   2.273631   0.000000
    10  H    2.094453   3.275526   1.737844   3.471338   0.000000
    11  H    3.377392   3.601216   2.692329   2.487248   2.362390
    12  H    2.625096   2.340997   3.080893   3.114248   2.810672
                   11         12
    11  H    0.000000
    12  H    1.826427   0.000000
 Symmetry turned off by external request.
 Stoichiometry    C3H6O3
 Framework group  C1[X(C3H6O3)]
 Deg. of freedom    30
 Full point group                 C1      NOp   1
 Rotational constants (GHZ):           5.1789505           3.6487823           2.6543115
 Standard basis: 6-31+G(d) (6D, 7F)
   126 basis functions,   216 primitive gaussians,   126 cartesian basis functions
    24 alpha electrons       24 beta electrons
       nuclear repulsion energy       255.2783445511 Hartrees.
 NAtoms=   12 NActive=   12 NUniq=   12 SFac= 1.00D+00 NAtFMM=   60 NAOKFM=F Big=F
 Integral buffers will be    131072 words long.
 Raffenetti 2 integral format.
 Two-electron integral symmetry is turned off.
 One-electron integrals computed using PRISM.
 NBasis=   126 RedAO= T EigKep=  1.06D-04  NBF=   126
 NBsUse=   126 1.00D-06 EigRej= -1.00D+00 NBFU=   126
 Initial guess from the checkpoint file:  "/scratch/bell/zhao922/YARP/paper-example/KHP-network/pp_0/IRC-folder/Gau-116546.chk"
 B after Tr=    -0.001331   -0.000614    0.000187
         Rot=    1.000000    0.000063   -0.000450   -0.000138 Ang=   0.05 deg.
 ExpMin= 4.38D-02 ExpMax= 5.48D+03 ExpMxC= 8.25D+02 IAcc=3 IRadAn=         5 AccDes= 0.00D+00
 Harris functional with IExCor=  402 and IRadAn=       5 diagonalized for initial guess.
 HarFok:  IExCor=  402 AccDes= 0.00D+00 IRadAn=         5 IDoV= 1 UseB2=F ITyADJ=14
 ICtDFT=  3500011 ScaDFX=  1.000000  1.000000  1.000000  1.000000
 FoFCou: FMM=F IPFlag=           0 FMFlag=      100000 FMFlg1=           0
         NFxFlg=           0 DoJE=T BraDBF=F KetDBF=T FulRan=T
         wScrn=  0.000000 ICntrl=       500 IOpCl=  0 I1Cent=   200000004 NGrid=           0
         NMat0=    1 NMatS0=      1 NMatT0=    0 NMatD0=    1 NMtDS0=    0 NMtDT0=    0
 Symmetry not used in FoFCou.
 Keep R1 ints in memory in canonical form, NReq=47237243.
 Requested convergence on RMS density matrix=1.00D-08 within 128 cycles.
 Requested convergence on MAX density matrix=1.00D-06.
 Requested convergence on             energy=1.00D-06.
 No special actions if energy rises.
 SCF Done:  E(RB3LYP) =  -343.408824415     A.U. after   12 cycles
            NFock= 12  Conv=0.52D-08     -V/T= 2.0089
 DoSCS=F DFT=T ScalE2(SS,OS)=  1.000000  1.000000
 Range of M.O.s used for correlation:     1   126
 NBasis=   126 NAE=    24 NBE=    24 NFC=     0 NFV=     0
 NROrb=    126 NOA=    24 NOB=    24 NVA=   102 NVB=   102

 **** Warning!!: The largest alpha MO coefficient is  0.28263398D+02

 Symmetrizing basis deriv contribution to polar:
 IMax=3 JMax=2 DiffMx= 0.00D+00
 G2DrvN: will do    13 centers at a time, making    1 passes.
 Calling FoFCou, ICntrl=  3107 FMM=F I1Cent=   0 AccDes= 0.00D+00.
 End of G2Drv F.D. properties file   721 does not exist.
 End of G2Drv F.D. properties file   722 does not exist.
 End of G2Drv F.D. properties file   788 does not exist.
          IDoAtm=111111111111
          Differentiating once with respect to nuclear coordinates.
 Keep R1 ints in memory in canonical form, NReq=47193244.
          There are    39 degrees of freedom in the 1st order CPHF.  IDoFFX=6 NUNeed=     0.
     33 vectors produced by pass  0 Test12= 6.28D-15 2.56D-09 XBig12= 1.67D-01 1.52D-01.
 AX will form    33 AO Fock derivatives at one time.
     33 vectors produced by pass  1 Test12= 6.28D-15 2.56D-09 XBig12= 4.80D-02 7.09D-02.
     33 vectors produced by pass  2 Test12= 6.28D-15 2.56D-09 XBig12= 1.07D-03 6.59D-03.
     33 vectors produced by pass  3 Test12= 6.28D-15 2.56D-09 XBig12= 6.96D-06 3.44D-04.
     33 vectors produced by pass  4 Test12= 6.28D-15 2.56D-09 XBig12= 1.55D-08 1.70D-05.
     30 vectors produced by pass  5 Test12= 6.28D-15 2.56D-09 XBig12= 2.29D-11 6.29D-07.
      8 vectors produced by pass  6 Test12= 6.28D-15 2.56D-09 XBig12= 2.30D-14 1.82D-08.
 InvSVY:  IOpt=1 It=  1 EMax= 1.55D-15
 Solved reduced A of dimension   203 with    33 vectors.
 End of Minotr F.D. properties file   721 does not exist.
 End of Minotr F.D. properties file   722 does not exist.
 End of Minotr F.D. properties file   788 does not exist.
 Calling FoFJK, ICntrl=    100127 FMM=F ISym2X=0 I1Cent= 0 IOpClX= 0 NMat=1 NMatS=1 NMatT=0.
 -------------------------------------------------------------------
 Center     Atomic                   Forces (Hartrees/Bohr)
 Number     Number              X              Y              Z
 -------------------------------------------------------------------
      1        6           0.010909543    0.006044102    0.015613253
      2        6           0.009351141    0.008096233   -0.004505821
      3        6          -0.012952673   -0.006249239   -0.017756075
      4        8          -0.002645956    0.000452361    0.000594164
      5        8          -0.003851556   -0.002270171   -0.002338795
      6        8           0.007923019   -0.001570923    0.006595183
      7        1          -0.000697799    0.000306538   -0.000640926
      8        1          -0.005844009   -0.001265533   -0.001605593
      9        1          -0.000881833   -0.000969288   -0.000487996
     10        1          -0.000073473   -0.001638803    0.006003908
     11        1           0.000343666    0.000358560   -0.000438629
     12        1          -0.001580069   -0.001293838   -0.001032672
 -------------------------------------------------------------------
 Cartesian Forces:  Max     0.017756075 RMS     0.006060275
 IRC-IRC-IRC-IRC-IRC-IRC-IRC-IRC-IRC-IRC-IRC-IRC-IRC-IRC-IRC-IRC-IRC-IRC
 Pt  6 Step number   1 out of a maximum of 100
 Modified Bulirsch-Stoer Extrapolation Cycles:
    EPS =    0.000010000000000
      PEZero:  N= 2 I= 1 D=  9.55D-04 Err=  6.11D-05
      PEZero:  N= 3 I= 2 D=  9.55D-04 Err=  4.07D-05
      PEZero:  N= 3 I= 1 D=  1.91D-03 Err=  1.02D-07
 Maximum DWI energy   std dev =  0.000003885 at pt    27
 Maximum DWI gradient std dev =  0.010221606 at pt    71
 CORRECTOR INTEGRATION CONVERGENCE:
   Recorrection delta-x convergence threshold:    0.010000
   Delta-x Convergence Met
 Point Number:   6          Path Number:   1
   CHANGE IN THE REACTION COORDINATE =    0.18320
   NET REACTION COORDINATE UP TO THIS POINT =    1.09927
  # OF POINTS ALONG THE PATH =   6
  # OF STEPS =   1

 Calculating another point on the path.
 IRC-IRC-IRC-IRC-IRC-IRC-IRC-IRC-IRC-IRC-IRC-IRC-IRC-IRC-IRC-IRC-IRC-IRC
                          Input orientation:                          
 ---------------------------------------------------------------------
 Center     Atomic      Atomic             Coordinates (Angstroms)
 Number     Number       Type             X           Y           Z
 ---------------------------------------------------------------------
      1          6           0        0.391512    1.140611   -0.230859
      2          6           0       -0.639147    0.998021    0.753144
      3          6           0       -1.435346    0.001572   -0.294218
      4          8           0        1.304216    0.263351   -0.488918
      5          8           0        1.327476   -0.845218    0.473850
      6          8           0       -1.086655   -1.263332   -0.183684
      7          1           0        0.363477   -1.249776    0.233238
      8          1           0       -1.227516    0.430706   -1.319456
      9          1           0        0.441975    1.969555   -0.936306
     10          1           0       -2.495435    0.281632   -0.128957
     11          1           0       -1.186083    1.922440    0.936427
     12          1           0       -0.378309    0.447044    1.653857
 ---------------------------------------------------------------------
                    Distance matrix (angstroms):
                    1          2          3          4          5
     1  C    0.000000
     2  C    1.432080   0.000000
     3  C    2.153795   1.650397   0.000000
     4  O    1.291979   2.420562   2.758920   0.000000
     5  O    2.305680   2.709823   2.990011   1.468464   0.000000
     6  O    2.822437   2.488299   1.316734   2.853103   2.536770
     7  H    2.435185   2.515582   2.253852   1.922512   1.072779
     8  H    2.076116   2.227935   1.130690   2.669732   3.372226
     9  H    1.089656   2.228664   2.794560   1.963352   3.270413
    10  H    3.013751   2.176493   1.108843   3.816708   4.030858
    11  H    2.112491   1.089624   2.294853   3.314479   3.767212
    12  H    2.150771   1.087610   2.260701   2.730590   2.443780
                    6          7          8          9         10
     6  O    0.000000
     7  H    1.508938   0.000000
     8  H    2.044403   2.786779   0.000000
     9  H    3.654410   3.426090   2.302620   0.000000
    10  H    2.091547   3.263400   1.745603   3.482711   0.000000
    11  H    3.378414   3.599801   2.704809   2.481918   2.354081
    12  H    2.608391   2.334010   3.092250   3.114458   2.772726
                   11         12
    11  H    0.000000
    12  H    1.828660   0.000000
 Symmetry turned off by external request.
 Stoichiometry    C3H6O3
 Framework group  C1[X(C3H6O3)]
 Deg. of freedom    30
 Full point group                 C1      NOp   1
 Rotational constants (GHZ):           5.1725082           3.6467653           2.6492388
 Standard basis: 6-31+G(d) (6D, 7F)
   126 basis functions,   216 primitive gaussians,   126 cartesian basis functions
    24 alpha electrons       24 beta electrons
       nuclear repulsion energy       255.1442854783 Hartrees.
 NAtoms=   12 NActive=   12 NUniq=   12 SFac= 1.00D+00 NAtFMM=   60 NAOKFM=F Big=F
 Integral buffers will be    131072 words long.
 Raffenetti 2 integral format.
 Two-electron integral symmetry is turned off.
 One-electron integrals computed using PRISM.
 NBasis=   126 RedAO= T EigKep=  1.05D-04  NBF=   126
 NBsUse=   126 1.00D-06 EigRej= -1.00D+00 NBFU=   126
 Initial guess from the checkpoint file:  "/scratch/bell/zhao922/YARP/paper-example/KHP-network/pp_0/IRC-folder/Gau-116546.chk"
 B after Tr=    -0.001185   -0.000562    0.000214
         Rot=    1.000000    0.000028   -0.000421   -0.000137 Ang=   0.05 deg.
 ExpMin= 4.38D-02 ExpMax= 5.48D+03 ExpMxC= 8.25D+02 IAcc=3 IRadAn=         5 AccDes= 0.00D+00
 Harris functional with IExCor=  402 and IRadAn=       5 diagonalized for initial guess.
 HarFok:  IExCor=  402 AccDes= 0.00D+00 IRadAn=         5 IDoV= 1 UseB2=F ITyADJ=14
 ICtDFT=  3500011 ScaDFX=  1.000000  1.000000  1.000000  1.000000
 FoFCou: FMM=F IPFlag=           0 FMFlag=      100000 FMFlg1=           0
         NFxFlg=           0 DoJE=T BraDBF=F KetDBF=T FulRan=T
         wScrn=  0.000000 ICntrl=       500 IOpCl=  0 I1Cent=   200000004 NGrid=           0
         NMat0=    1 NMatS0=      1 NMatT0=    0 NMatD0=    1 NMtDS0=    0 NMtDT0=    0
 Symmetry not used in FoFCou.
 Keep R1 ints in memory in canonical form, NReq=47237243.
 Requested convergence on RMS density matrix=1.00D-08 within 128 cycles.
 Requested convergence on MAX density matrix=1.00D-06.
 Requested convergence on             energy=1.00D-06.
 No special actions if energy rises.
 SCF Done:  E(RB3LYP) =  -343.411254292     A.U. after   12 cycles
            NFock= 12  Conv=0.58D-08     -V/T= 2.0089
 DoSCS=F DFT=T ScalE2(SS,OS)=  1.000000  1.000000
 Range of M.O.s used for correlation:     1   126
 NBasis=   126 NAE=    24 NBE=    24 NFC=     0 NFV=     0
 NROrb=    126 NOA=    24 NOB=    24 NVA=   102 NVB=   102

 **** Warning!!: The largest alpha MO coefficient is  0.29748662D+02

 Symmetrizing basis deriv contribution to polar:
 IMax=3 JMax=2 DiffMx= 0.00D+00
[...]
  11                    0.17615  -0.33826  -1.29005   1.83205   0.81338
  12                    0.18569  -0.35522  -1.28693   1.83063   0.82555
  13                    0.19589  -0.37411  -1.28418   1.82954   0.83739
  14                    0.20667  -0.39464  -1.28177   1.82880   0.84883
  15                    0.21799  -0.41654  -1.27971   1.82840   0.85983
  16                    0.22977  -0.43956  -1.27799   1.82836   0.87033
  17                    0.24193  -0.46342  -1.27659   1.82869   0.88031
  18                    0.25440  -0.48786  -1.27547   1.82938   0.88969
  19                    0.26706  -0.51258  -1.27457   1.83046   0.89845
  20                    0.27977  -0.53726  -1.27381   1.83196   0.90653
  21                    0.29232  -0.56152  -1.27308   1.83394   0.91389
  22                    0.30442  -0.58487  -1.27221   1.83643   0.92051
  23                    0.31570  -0.60668  -1.27105   1.83950   0.92637
  24                    0.32569  -0.62609  -1.26941   1.84319   0.93146
  25                    0.33396  -0.64202  -1.26719   1.84745   0.93583
  26                    0.34025  -0.65340  -1.26432   1.85217   0.93951
  27                    0.34459  -0.65939  -1.26086   1.85718   0.94259
  28                    0.34728  -0.65966  -1.25690   1.86229   0.94514
  29                    0.34878  -0.65438  -1.25254   1.86735   0.94725
  30                    0.34948  -0.64406  -1.24789   1.87225   0.94901
  31                    0.34968  -0.62942  -1.24309   1.87690   0.95043
  32                    0.34955  -0.61131  -1.23827   1.88123   0.95154
  33                    0.34914  -0.59092  -1.23362   1.88515   0.95233
  34                    0.34849  -0.56974  -1.22935   1.88857   0.95284
  35                    0.34760  -0.54877  -1.22552   1.89152   0.95312
  36                    0.34646  -0.52801  -1.22206   1.89412   0.95323
  37                    0.34504  -0.50693  -1.21881   1.89651   0.95320
  38                    0.34330  -0.48487  -1.21567   1.89879   0.95305
  39                    0.34114  -0.46115  -1.21257   1.90103   0.95275
  40                    0.33844  -0.43506  -1.20943   1.90328   0.95226
  41                    0.33499  -0.40557  -1.20622   1.90557   0.95151
  42                    0.33091  -0.37340  -1.20303   1.90786   0.95053
  43                    0.32573  -0.33738  -1.19981   1.91019   0.94915
  44                    0.31937  -0.29828  -1.19668   1.91252   0.94737
  45                    0.31176  -0.25690  -1.19370   1.91484   0.94517
  46                    0.30286  -0.21422  -1.19094   1.91720   0.94259
  47                    0.29271  -0.17127  -1.18841   1.91968   0.93965
  48                    0.28147  -0.12906  -1.18610   1.92244   0.93642
  49                    0.26953  -0.08861  -1.18399   1.92568   0.93298
  50                    0.25745  -0.05089  -1.18208   1.92961   0.92945
  51                    0.24587  -0.01667  -1.18034   1.93437   0.92598
  52                    0.23528   0.01364  -1.17869   1.94005   0.92281
  53                    0.22594   0.03995  -1.17698   1.94661   0.92014
  54                    0.21788   0.06248  -1.17504   1.95397   0.91817
  55                    0.21102   0.08161  -1.17271   1.96197   0.91701
  56                    0.20518   0.09776  -1.16992   1.97048   0.91672
  57                    0.20014   0.11137  -1.16659   1.97940   0.91728
  58                    0.19568   0.12277  -1.16270   1.98865   0.91864
  59                    0.19162   0.13226  -1.15820   1.99823   0.92074
  60                    0.18777   0.14006  -1.15307   2.00811   0.92353
  61                    0.18398   0.14636  -1.14727   2.01830   0.92694
  62                    0.18011   0.15129  -1.14077   2.02883   0.93094
  63                    0.17606   0.15495  -1.13354   2.03970   0.93548
  64                    0.17173   0.15746  -1.12555   2.05091   0.94052
  65                    0.16705   0.15890  -1.11681   2.06246   0.94602
  66                    0.16196   0.15935  -1.10730   2.07433   0.95196
  67                    0.15643   0.15890  -1.09705   2.08650   0.95829
  68                    0.15044   0.15765  -1.08610   2.09892   0.96497
  69                    0.14399   0.15569  -1.07448   2.11154   0.97196
  70                    0.13708   0.15309  -1.06226   2.12431   0.97922
  71                    0.12973   0.14995  -1.04950   2.13716   0.98672
  72                    0.12196   0.14634  -1.03627   2.15005   0.99441
  73                    0.11380   0.14233  -1.02264   2.16290   1.00227
  74                    0.10527   0.13799  -1.00867   2.17567   1.01027
  75                    0.09639   0.13335  -0.99442   2.18831   1.01838
  76                    0.08719   0.12847  -0.97996   2.20079   1.02657
  77                    0.07769   0.12336  -0.96533   2.21308   1.03483
  78                    0.06790   0.11806  -0.95057   2.22517   1.04314
  79                    0.05783   0.11258  -0.93571   2.23706   1.05147
  80                    0.04748   0.10691  -0.92079   2.24874   1.05982
  81                    0.03684   0.10105  -0.90583   2.26024   1.06814
                          X12       Y12       Z12
   1                   -0.44329   0.60453   1.56554
   2                   -0.42737   0.60034   1.56411
   3                   -0.41123   0.59532   1.56277
   4                   -0.39521   0.58983   1.56160
   5                   -0.37954   0.58413   1.56068
   6                   -0.36439   0.57842   1.56007
   7                   -0.34984   0.57286   1.55978
   8                   -0.33597   0.56754   1.55985
   9                   -0.32279   0.56253   1.56029
  10                   -0.31034   0.55791   1.56110
  11                   -0.29861   0.55370   1.56229
  12                   -0.28761   0.54996   1.56387
  13                   -0.27735   0.54671   1.56585
  14                   -0.26784   0.54397   1.56823
  15                   -0.25909   0.54176   1.57103
  16                   -0.25112   0.54007   1.57427
  17                   -0.24398   0.53891   1.57799
  18                   -0.23772   0.53824   1.58222
  19                   -0.23243   0.53802   1.58702
  20                   -0.22825   0.53817   1.59247
  21                   -0.22539   0.53857   1.59866
  22                   -0.22410   0.53905   1.60571
  23                   -0.22472   0.53941   1.61370
  24                   -0.22754   0.53941   1.62267
  25                   -0.23272   0.53888   1.63250
  26                   -0.24009   0.53774   1.64284
  27                   -0.24911   0.53606   1.65317
  28                   -0.25899   0.53407   1.66293
  29                   -0.26894   0.53198   1.67168
  30                   -0.27833   0.52995   1.67916
  31                   -0.28672   0.52808   1.68522
  32                   -0.29383   0.52637   1.68984
  33                   -0.29953   0.52477   1.69304
  34                   -0.30384   0.52322   1.69497
  35                   -0.30708   0.52163   1.69593
  36                   -0.30968   0.51988   1.69619
  37                   -0.31196   0.51786   1.69592
  38                   -0.31420   0.51544   1.69519
  39                   -0.31661   0.51248   1.69398
  40                   -0.31943   0.50880   1.69223
  41                   -0.32300   0.50406   1.68979
  42                   -0.32727   0.49852   1.68681
  43                   -0.33276   0.49171   1.68296
  44                   -0.33949   0.48384   1.67833
  45                   -0.34750   0.47513   1.67298
  46                   -0.35674   0.46587   1.66701
  47                   -0.36710   0.45640   1.66055
  48                   -0.37841   0.44709   1.65374
  49                   -0.39041   0.43838   1.64675
  50                   -0.40269   0.43074   1.63984
  51                   -0.41477   0.42457   1.63331
  52                   -0.42619   0.42004   1.62742
  53                   -0.43665   0.41710   1.62231
  54                   -0.44603   0.41548   1.61801
  55                   -0.45436   0.41489   1.61446
  56                   -0.46171   0.41507   1.61158
  57                   -0.46816   0.41587   1.60927
  58                   -0.47378   0.41720   1.60746
  59                   -0.47863   0.41903   1.60612
  60                   -0.48272   0.42139   1.60522
  61                   -0.48607   0.42430   1.60477
  62                   -0.48866   0.42778   1.60479
  63                   -0.49048   0.43188   1.60530
  64                   -0.49151   0.43659   1.60632
  65                   -0.49173   0.44193   1.60787
  66                   -0.49115   0.44787   1.60994
  67                   -0.48975   0.45440   1.61254
  68                   -0.48755   0.46145   1.61565
  69                   -0.48457   0.46897   1.61923
  70                   -0.48083   0.47691   1.62325
  71                   -0.47635   0.48519   1.62765
  72                   -0.47118   0.49374   1.63239
  73                   -0.46535   0.50250   1.63741
  74                   -0.45888   0.51140   1.64266
  75                   -0.45183   0.52039   1.64809
  76                   -0.44421   0.52942   1.65367
  77                   -0.43606   0.53846   1.65936
  78                   -0.42742   0.54748   1.66512
  79                   -0.41831   0.55647   1.67094
  80                   -0.40878   0.56544   1.67681
  81                   -0.39886   0.57439   1.68272
 --------------------------------------------------------------------------
 
 Total number of points:                   80
 Total number of gradient calculations:    81
 Total number of Hessian calculations:     81
 IRC-IRC-IRC-IRC-IRC-IRC-IRC-IRC-IRC-IRC-IRC-IRC-IRC-IRC-IRC-IRC-IRC-IRC
                          Input orientation:                          
 ---------------------------------------------------------------------
 Center     Atomic      Atomic             Coordinates (Angstroms)
 Number     Number       Type             X           Y           Z
 ---------------------------------------------------------------------
      1          6           0        0.519765    1.273248   -0.242601
      2          6           0       -0.753215    0.941243    0.569513
      3          6           0       -1.610664   -0.143775   -0.042519
      4          8           0        1.289372    0.141816   -0.623386
      5          8           0        1.464518   -0.720277    0.532661
      6          8           0       -1.225752   -1.287665   -0.211507
      7          1           0        0.726658   -1.349615    0.366974
      8          1           0        0.271888    1.735047   -1.206273
      9          1           0        1.127529    1.978058    0.341691
     10          1           0       -2.640683    0.132142   -0.347942
     11          1           0       -1.337253    1.860997    0.690375
     12          1           0       -0.443256    0.604493    1.565600
 ---------------------------------------------------------------------
                    Distance matrix (angstroms):
                    1          2          3          4          5
     1  C    0.000000
     2  C    1.546038   0.000000
     3  C    2.566459   1.512305   0.000000
     4  O    1.420364   2.496849   2.971393   0.000000
     5  O    2.338318   2.771344   3.181184   1.452695   0.000000
     6  O    3.099366   2.408592   1.218687   2.922141   2.848380
     7  H    2.700702   2.734790   2.661730   1.876652   0.983847
     8  H    1.096980   2.198722   2.903153   1.978236   3.236491
     9  H    1.098877   2.159650   3.485325   2.080710   2.725994
    10  H    3.361793   2.249201   1.109213   3.939708   4.284245
    11  H    2.159724   1.096200   2.151975   3.403045   3.812843
    12  H    2.155048   1.096204   2.123392   2.829793   2.541964
                    6          7          8          9         10
     6  O    0.000000
     7  H    2.037249   0.000000
     8  H    3.516997   3.492429   0.000000
     9  H    4.063115   3.351827   1.785320   0.000000
    10  H    2.009104   3.747759   3.433527   4.252343   0.000000
    11  H    3.277177   3.830449   2.490476   2.492074   2.401243
    12  H    2.711212   2.573701   3.077801   2.419091   2.951855
                   11         12
    11  H    0.000000
    12  H    1.773148   0.000000
 Symmetry turned off by external request.
 Stoichiometry    C3H6O3
 Framework group  C1[X(C3H6O3)]
 Deg. of freedom    30
 Full point group                 C1      NOp   1
 Rotational constants (GHZ):           5.2316985           3.1526688           2.3479687

 **********************************************************************

            Population analysis using the SCF Density.

 **********************************************************************

 Alpha  occ. eigenvalues --  -19.21905 -19.20670 -19.18916 -10.31023 -10.26509
 Alpha  occ. eigenvalues --  -10.22472  -1.12553  -1.07920  -0.92122  -0.79627
 Alpha  occ. eigenvalues --   -0.67303  -0.59656  -0.54660  -0.51127  -0.49280
 Alpha  occ. eigenvalues --   -0.47018  -0.45874  -0.44019  -0.41384  -0.39994
 Alpha  occ. eigenvalues --   -0.37058  -0.30349  -0.28748  -0.28234
 Alpha virt. eigenvalues --   -0.06741  -0.00518   0.00368   0.02206   0.02589
 Alpha virt. eigenvalues --    0.03479   0.05479   0.06207   0.07162   0.07493
 Alpha virt. eigenvalues --    0.09643   0.11063   0.12202   0.14180   0.15125
 Alpha virt. eigenvalues --    0.16128   0.19015   0.19331   0.20466   0.20643
 Alpha virt. eigenvalues --    0.22218   0.22996   0.23628   0.25021   0.25468
 Alpha virt. eigenvalues --    0.26503   0.28625   0.29079   0.31082   0.31899
 Alpha virt. eigenvalues --    0.32907   0.34989   0.36683   0.39530   0.41388
 Alpha virt. eigenvalues --    0.43078   0.62103   0.63200   0.63666   0.67612
 Alpha virt. eigenvalues --    0.70168   0.72815   0.75619   0.77739   0.87028
 Alpha virt. eigenvalues --    0.92062   0.93441   0.99495   1.04536   1.05405
 Alpha virt. eigenvalues --    1.06970   1.07243   1.12887   1.15168   1.19001
 Alpha virt. eigenvalues --    1.21837   1.22654   1.25323   1.26102   1.28266
 Alpha virt. eigenvalues --    1.30759   1.38336   1.42452   1.44489   1.47487
 Alpha virt. eigenvalues --    1.51681   1.55702   1.59597   1.62181   1.66878
 Alpha virt. eigenvalues --    1.72534   1.74576   1.78729   1.84038   1.86211
 Alpha virt. eigenvalues --    1.87898   1.89927   1.94204   1.97920   2.06442
 Alpha virt. eigenvalues --    2.08970   2.18826   2.22596   2.30561   2.31849
 Alpha virt. eigenvalues --    2.38762   2.39300   2.47168   2.55428   2.56099
 Alpha virt. eigenvalues --    2.61101   2.73941   2.83010   2.86943   3.01419
 Alpha virt. eigenvalues --    3.14085   3.97273   4.13866   4.21980   4.30500
 Alpha virt. eigenvalues --    4.35644   4.52032
          Condensed to atoms (all electrons):
               1          2          3          4          5          6
     1  C    5.356981  -0.015902   0.014016   0.189735   0.002857  -0.035104
     2  C   -0.015902   6.284487  -0.090911  -0.146190   0.038809  -0.090363
     3  C    0.014016  -0.090911   5.107096   0.058131  -0.085267   0.425015
     4  O    0.189735  -0.146190   0.058131   8.018717   0.102398   0.028856
     5  O    0.002857   0.038809  -0.085267   0.102398   8.310903  -0.012192
     6  O   -0.035104  -0.090363   0.425015   0.028856  -0.012192   8.103519
     7  H   -0.024252   0.022201   0.000601  -0.035113   0.173168   0.033592
     8  H    0.401391  -0.021632  -0.024098  -0.050627   0.005194   0.001106
     9  H    0.417791  -0.110488   0.019016  -0.042277   0.007378   0.000507
    10  H    0.003992  -0.121009   0.403608  -0.000155  -0.001288  -0.061968
    11  H   -0.026874   0.336365  -0.023164   0.007211   0.001031   0.007821
    12  H   -0.037030   0.409496  -0.049348  -0.007699  -0.002342  -0.005360
               7          8          9         10         11         12
     1  C   -0.024252   0.401391   0.417791   0.003992  -0.026874  -0.037030
     2  C    0.022201  -0.021632  -0.110488  -0.121009   0.336365   0.409496
     3  C    0.000601  -0.024098   0.019016   0.403608  -0.023164  -0.049348
     4  O   -0.035113  -0.050627  -0.042277  -0.000155   0.007211  -0.007699
     5  O    0.173168   0.005194   0.007378  -0.001288   0.001031  -0.002342
     6  O    0.033592   0.001106   0.000507  -0.061968   0.007821  -0.005360
     7  H    0.321691  -0.000072  -0.000928   0.000479  -0.000064  -0.000026
     8  H   -0.000072   0.522985  -0.039746   0.000401  -0.002971   0.003818
     9  H   -0.000928  -0.039746   0.556199  -0.000165   0.001473  -0.007017
    10  H    0.000479   0.000401  -0.000165   0.600265   0.000968   0.003202
    11  H   -0.000064  -0.002971   0.001473   0.000968   0.517458  -0.028424
    12  H   -0.000026   0.003818  -0.007017   0.003202  -0.028424   0.456574
 Mulliken charges:
               1
     1  C   -0.247601
     2  C   -0.494862
     3  C    0.245305
     4  O   -0.122987
     5  O   -0.540650
     6  O   -0.395431
     7  H    0.508724
     8  H    0.204250
     9  H    0.198258
    10  H    0.171669
    11  H    0.209171
    12  H    0.264154
 Sum of Mulliken charges =  -0.00000
 Mulliken charges with hydrogens summed into heavy atoms:
               1
     1  C    0.154907
     2  C   -0.021538
     3  C    0.416974
     4  O   -0.122987
     5  O   -0.031926
     6  O   -0.395431
 APT charges:
               1
     1  C   -0.878900
     2  C   -0.817282
     3  C   -0.207533
     4  O   -0.142287
     5  O   -0.514825
     6  O   -0.389486
     7  H    0.508419
     8  H    0.468256
     9  H    0.499394
    10  H    0.534418
    11  H    0.520756
    12  H    0.419070
 Sum of APT charges =  -0.00000
 APT charges with hydrogens summed into heavy atoms:
               1
     1  C    0.088750
     2  C    0.122544
     3  C    0.326885
     4  O   -0.142287
     5  O   -0.006406
     6  O   -0.389486
 Electronic spatial extent (au):  <R**2>=            552.9582
 Charge=             -0.0000 electrons
 Dipole moment (field-independent basis, Debye):
    X=             -2.8987    Y=              3.0822    Z=              0.7589  Tot=              4.2987
 Quadrupole moment (field-independent basis, Debye-Ang):
   XX=            -38.7690   YY=            -34.7270   ZZ=            -36.0614
   XY=             -1.7711   XZ=             -0.3679   YZ=             -1.2075
 Traceless Quadrupole moment (field-independent basis, Debye-Ang):
   XX=             -2.2499   YY=              1.7921   ZZ=              0.4577
   XY=             -1.7711   XZ=             -0.3679   YZ=             -1.2075
 Octapole moment (field-independent basis, Debye-Ang**2):
  XXX=             -8.5625  YYY=             -6.8165  ZZZ=             -2.1288  XYY=              8.6120
  XXY=              3.3449  XXZ=             -0.9664  XZZ=              0.2454  YZZ=             -2.5463
  YYZ=              0.4829  XYZ=              1.5449
 Hexadecapole moment (field-independent basis, Debye-Ang**3):
 XXXX=           -363.7599 YYYY=           -234.8968 ZZZZ=            -89.1667 XXXY=            -10.3742
 XXXZ=              4.7201 YYYX=            -20.3255 YYYZ=             -5.2322 ZZZX=              3.9172
 ZZZY=             -3.8877 XXYY=           -106.3064 XXZZ=            -79.6474 YYZZ=            -52.9888
 XXYZ=              0.6503 YYXZ=             -0.3361 ZZXY=             -3.3950
 N-N= 2.478334351496D+02 E-N=-1.300227580534D+03  KE= 3.403741133899D+02
  Exact polarizability:   0.000   0.000   0.000   0.000   0.000   0.000
 Approx polarizability:  64.635  -5.502  80.106   2.560  -2.178  60.081

 This type of calculation cannot be archived.


 IMAGINATION WILL OFTEN CARRY US TO WORLDS THAT NEVER WERE.
 BUT WITHOUT IT, WE GO NOWHERE. -- CARL SAGAN (COSMOS)
 Job cpu time:       0 days  6 hours 56 minutes 11.5 seconds.
 Elapsed time:       0 days  0 hours 29 minutes 17.6 seconds.
 File lengths (MBytes):  RWF=     28 Int=      0 D2E=      0 Chk=      4 Scr=      1
 Normal termination of Gaussian 16 at Wed Dec 23 22:46:00 2020.
