 Entering Gaussian System, Link 0=g16
 Initial command:
 /apps/cent7/gaussian/g16-B.01/g16-haswell/g16/l1.exe "/scratch/bell/zhao922/YARP/paper-example/KHP-network/pp_0/IRC-folder/Gau-38219.inp" -scrdir="/scratch/bell/zhao922/YARP/paper-example/KHP-network/pp_0/IRC-folder/"
 Entering Link 1 = /apps/cent7/gaussian/g16-B.01/g16-haswell/g16/l1.exe PID=     38220.
  
 Copyright (c) 1988-2017, Gaussian, Inc.  All Rights Reserved.
  
 This is part of the Gaussian(R) 16 program.  It is based on
 the Gaussian(R) 09 system (copyright 2009, Gaussian, Inc.),
 the Gaussian(R) 03 system (copyright 2003, Gaussian, Inc.),
 the Gaussian(R) 98 system (copyright 1998, Gaussian, Inc.),
 the Gaussian(R) 94 system (copyright 1995, Gaussian, Inc.),
 the Gaussian 92(TM) system (copyright 1992, Gaussian, Inc.),
 the Gaussian 90(TM) system (copyright 1990, Gaussian, Inc.),
 the Gaussian 88(TM) system (copyright 1988, Gaussian, Inc.),
 the Gaussian 86(TM) system (copyright 1986, Carnegie Mellon
 University), and the Gaussian 82(TM) system (copyright 1983,
 Carnegie Mellon University). Gaussian is a federally registered
 trademark of Gaussian, Inc.
  
 This software contains proprietary and confidential information,
 including trade secrets, belonging to Gaussian, Inc.
  
 This software is provided under written license and may be
 used, copied, transmitted, or stored only in accord with that
 written license.
  
 The following legend is applicable only to US Government
 contracts under FAR:
  
                    RESTRICTED RIGHTS LEGEND
  
 Use, reproduction and disclosure by the US Government is
 subject to restrictions as set forth in subparagraphs (a)
 and (c) of the Commercial Computer Software - Restricted
 Rights clause in FAR 52.227-19.
  
 Gaussian, Inc.
 340 Quinnipiac St., Bldg. 40, Wallingford CT 06492
  
  
 ---------------------------------------------------------------
 Warning -- This program may not be used in any manner that
 competes with the business of Gaussian, Inc. or will provide
 assistance to any competitor of Gaussian, Inc.  The licensee
 of this program is prohibited from giving any competitor of
 Gaussian, Inc. access to this program.  By using this program,
 the user acknowledges that Gaussian, Inc. is engaged in the
 business of creating and licensing software in the field of
 computational chemistry and represents and warrants to the
 licensee that it is not a competitor of Gaussian, Inc. and that
 it will not use this program in any manner prohibited above.
 ---------------------------------------------------------------
  

 Cite this work as:
 Gaussian 16, Revision B.01,
 M. J. Frisch, G. W. Trucks, H. B. Schlegel, G. E. Scuseria, 
 M. A. Robb, J. R. Cheeseman, G. Scalmani, V. Barone, 
 G. A. Petersson, H. Nakatsuji, X. Li, M. Caricato, A. V. Marenich, 
 J. Bloino, B. G. Janesko, R. Gomperts, B. Mennucci, H. P. Hratchian, 
 J. V. Ortiz, A. F. Izmaylov, J. L. Sonnenberg, D. Williams-Young, 
 F. Ding, F. Lipparini, F. Egidi, J. Goings, B. Peng, A. Petrone, 
 T. Henderson, D. Ranasinghe, V. G. Zakrzewski, J. Gao, N. Rega, 
 G. Zheng, W. Liang, M. Hada, M. Ehara, K. Toyota, R. Fukuda, 
 J. Hasegawa, M. Ishida, T. Nakajima, Y. Honda, O. Kitao, H. Nakai, 
 T. Vreven, K. Throssell, J. A. Montgomery, Jr., J. E. Peralta, 
 F. Ogliaro, M. J. Bearpark, J. J. Heyd, E. N. Brothers, K. N. Kudin, 
 V. N. Staroverov, T. A. Keith, R. Kobayashi, J. Normand, 
 K. Raghavachari, A. P. Rendell, J. C. Burant, S. S. Iyengar, 
 J. Tomasi, M. Cossi, J. M. Millam, M. Klene, C. Adamo, R. Cammi, 
 J. W. Ochterski, R. L. Martin, K. Morokuma, O. Farkas, 
 J. B. Foresman, and D. J. Fox, Gaussian, Inc., Wallingford CT, 2016.
 
 ******************************************
 Gaussian 16:  ES64L-G16RevB.01 20-Dec-2017
                23-Dec-2020 
 ******************************************
 %NProcShared=16
 Will use up to   16 processors via shared memory.
 %Mem=6GB
 ----------------------------------------------------------------------
 # B3LYP/6-31+G* IRC=(CALCALL, maxpoints=40, StepSize=15, maxcyc=100, R
 eport=Cartesians)
 ----------------------------------------------------------------------
 1/6=100,10=4,18=10,26=3,38=1,39=15,42=40,44=3,71=1,129=10,172=1/1,23;
 2/12=2,17=6,18=5,29=1,40=1/2;
 3/5=1,6=6,7=11,11=2,25=1,30=1,71=2,74=-5,140=1/1,2,3;
 4//1;
 5/5=2,38=5/2;
 8/6=4,10=90,11=11/1;
 11/6=1,8=1,9=11,15=111,16=1/1,2,10;
 10/6=1,13=1/2;
 6/7=2,8=2,9=2,10=2,18=1,28=1/1;
 7/10=1,25=1/1,2,3,16;
 1/6=100,10=4,18=10,26=3,39=15,42=40,44=3,71=1,129=10/23(2);
 2/29=1/2;
 99/5=20/99;
 2/29=1/2;
 3/5=1,6=6,7=11,11=2,25=1,30=1,71=2,74=-5,140=1/1,2,3;
 4/5=5,16=3,69=1/1;
 5/5=2,38=5/2;
 8/6=4,10=90,11=11/1;
 11/6=1,8=1,9=11,15=111,16=1/1,2,10;
 10/6=1,13=1/2;
 7/10=1,25=1/1,2,3,16;
 1/6=100,10=4,18=10,26=3,39=15,42=40,44=3,71=1,129=10/23(-8);
 2/29=1/2;
 6/7=2,8=2,9=2,10=2,18=1,19=2,28=1/1;
 99/5=20/99;
 -----------
 pp_13_3 IRC
 -----------
 Symbolic Z-matrix:
 Charge =  0 Multiplicity = 1
 C                     0.36267   0.03108   0.29104 
 C                    -0.8037    0.87729   0.05682 
 C                    -2.05583   0.21886  -0.16098 
 O                     1.48907   0.41695  -0.36486 
 O                     2.58542  -0.49744   0.03284 
 O                    -2.25262  -0.9995   -0.06312 
 H                     2.991    -0.63268  -0.84433 
 H                     0.12863  -1.03457   0.33315 
 H                     0.84004   0.0968    1.63393 
 H                    -2.89513   0.89314  -0.42704 
 H                    -0.67063   1.94633  -0.0613 
 H                     0.01228   0.60766   1.40544 
 
 IRC-IRC-IRC-IRC-IRC-IRC-IRC-IRC-IRC-IRC-IRC-IRC-IRC-IRC-IRC-IRC-IRC-IRC
 ------------------------------------------------------------------------
 INPUT DATA FOR L123
 ------------------------------------------------------------------------
 GENERAL PARAMETERS:
 Follow reaction path in both directions.
 Maximum points per path      =  40
 Step size                    =   0.150 bohr
 Integration scheme           = HPC                                 
    Redo corrector integration= Yes                                 
    DWI Weight Power          =  2
    DWI will use Hessian update vectors when possible.
    Max correction cycles     = 100
 Initial Hessian              = CalcFC
 Hessian evaluation           = Analytic at all predictor steps
                              = Update at all corrector steps
 Hessian updating method      = Bofill                              
 ------------------------------------------------------------------------
 IRC-IRC-IRC-IRC-IRC-IRC-IRC-IRC-IRC-IRC-IRC-IRC-IRC-IRC-IRC-IRC-IRC-IRC
                          Input orientation:                          
 ---------------------------------------------------------------------
 Center     Atomic      Atomic             Coordinates (Angstroms)
 Number     Number       Type             X           Y           Z
 ---------------------------------------------------------------------
      1          6           0        0.362671    0.031075    0.291039
      2          6           0       -0.803700    0.877286    0.056818
      3          6           0       -2.055826    0.218863   -0.160976
      4          8           0        1.489070    0.416946   -0.364856
      5          8           0        2.585418   -0.497443    0.032835
      6          8           0       -2.252622   -0.999504   -0.063122
      7          1           0        2.991002   -0.632679   -0.844330
      8          1           0        0.128633   -1.034574    0.333152
      9          1           0        0.840038    0.096800    1.633933
     10          1           0       -2.895128    0.893141   -0.427039
     11          1           0       -0.670629    1.946326   -0.061303
     12          1           0        0.012284    0.607661    1.405442
 ---------------------------------------------------------------------
                    Distance matrix (angstroms):
                    1          2          3          4          5
     1  C    0.000000
     2  C    1.459916   0.000000
     3  C    2.467531   1.431354   0.000000
     4  O    1.359364   2.376240   3.556275   0.000000
     5  O    2.299262   3.657400   4.700192   1.481973   0.000000
     6  O    2.833246   2.374047   1.238032   4.012186   4.864967
     7  H    2.939006   4.182323   5.163581   1.894045   0.975810
     8  H    1.091859   2.144951   2.566540   2.108297   2.532685
     9  H    1.426732   2.407971   3.409197   2.125769   2.441924
    10  H    3.445584   2.146728   1.108994   4.410422   5.672882
    11  H    2.204550   1.083747   2.216491   2.663728   4.072187
    12  H    1.302734   1.599160   2.623339   2.313271   3.118705
                    6          7          8          9         10
     6  O    0.000000
     7  H    5.314173   0.000000
     8  H    2.414257   3.121080   0.000000
     9  H    3.694107   3.361633   1.864976   0.000000
    10  H    2.031589   6.094980   3.665666   4.339727   0.000000
    11  H    3.343743   4.546640   3.111299   2.928598   2.488244
    12  H    3.141569   3.933533   1.964759   0.999182   3.448555
                   11         12
    11  H    0.000000
    12  H    2.099937   0.000000
 Symmetry turned off by external request.
 Stoichiometry    C3H6O3
 Framework group  C1[X(C3H6O3)]
 Deg. of freedom    30
 Full point group                 C1      NOp   1
 Rotational constants (GHZ):          10.5088859           1.6220241           1.4810087
 Standard basis: 6-31+G(d) (6D, 7F)
   126 basis functions,   216 primitive gaussians,   126 cartesian basis functions
    24 alpha electrons       24 beta electrons
       nuclear repulsion energy       234.5597990568 Hartrees.
 NAtoms=   12 NActive=   12 NUniq=   12 SFac= 1.00D+00 NAtFMM=   60 NAOKFM=F Big=F
 Integral buffers will be    131072 words long.
 Raffenetti 2 integral format.
 Two-electron integral symmetry is turned off.
 One-electron integrals computed using PRISM.
 NBasis=   126 RedAO= T EigKep=  8.79D-05  NBF=   126
 NBsUse=   126 1.00D-06 EigRej= -1.00D+00 NBFU=   126
 ExpMin= 4.38D-02 ExpMax= 5.48D+03 ExpMxC= 8.25D+02 IAcc=3 IRadAn=         5 AccDes= 0.00D+00
 Harris functional with IExCor=  402 and IRadAn=       5 diagonalized for initial guess.
 HarFok:  IExCor=  402 AccDes= 0.00D+00 IRadAn=         5 IDoV= 1 UseB2=F ITyADJ=14
 ICtDFT=  3500011 ScaDFX=  1.000000  1.000000  1.000000  1.000000
 FoFCou: FMM=F IPFlag=           0 FMFlag=      100000 FMFlg1=           0
         NFxFlg=           0 DoJE=T BraDBF=F KetDBF=T FulRan=T
         wScrn=  0.000000 ICntrl=       500 IOpCl=  0 I1Cent=   200000004 NGrid=           0
         NMat0=    1 NMatS0=      1 NMatT0=    0 NMatD0=    1 NMtDS0=    0 NMtDT0=    0
 Symmetry not used in FoFCou.
 Keep R1 ints in memory in canonical form, NReq=47237219.
 Requested convergence on RMS density matrix=1.00D-08 within 128 cycles.
 Requested convergence on MAX density matrix=1.00D-06.
 Requested convergence on             energy=1.00D-06.
 No special actions if energy rises.
 SCF Done:  E(RB3LYP) =  -343.340688588     A.U. after   16 cycles
            NFock= 16  Conv=0.26D-08     -V/T= 2.0091
 DoSCS=F DFT=T ScalE2(SS,OS)=  1.000000  1.000000
 Range of M.O.s used for correlation:     1   126
 NBasis=   126 NAE=    24 NBE=    24 NFC=     0 NFV=     0
 NROrb=    126 NOA=    24 NOB=    24 NVA=   102 NVB=   102

 **** Warning!!: The largest alpha MO coefficient is  0.32301010D+02

 Symmetrizing basis deriv contribution to polar:
 IMax=3 JMax=2 DiffMx= 0.00D+00
 G2DrvN: will do    13 centers at a time, making    1 passes.
 Calling FoFCou, ICntrl=  3107 FMM=F I1Cent=   0 AccDes= 0.00D+00.
 End of G2Drv F.D. properties file   721 does not exist.
 End of G2Drv F.D. properties file   722 does not exist.
 End of G2Drv F.D. properties file   788 does not exist.
          IDoAtm=111111111111
          Differentiating once with respect to nuclear coordinates.
 Keep R1 ints in memory in canonical form, NReq=47193241.
          There are    39 degrees of freedom in the 1st order CPHF.  IDoFFX=6 NUNeed=     0.
     33 vectors produced by pass  0 Test12= 6.28D-15 2.56D-09 XBig12= 2.37D-01 2.43D-01.
 AX will form    33 AO Fock derivatives at one time.
     33 vectors produced by pass  1 Test12= 6.28D-15 2.56D-09 XBig12= 4.83D-02 5.42D-02.
     33 vectors produced by pass  2 Test12= 6.28D-15 2.56D-09 XBig12= 1.11D-03 6.40D-03.
     33 vectors produced by pass  3 Test12= 6.28D-15 2.56D-09 XBig12= 3.95D-06 3.40D-04.
     33 vectors produced by pass  4 Test12= 6.28D-15 2.56D-09 XBig12= 7.17D-09 1.30D-05.
     30 vectors produced by pass  5 Test12= 6.28D-15 2.56D-09 XBig12= 9.60D-12 4.13D-07.
      5 vectors produced by pass  6 Test12= 6.28D-15 2.56D-09 XBig12= 8.33D-15 1.06D-08.
 InvSVY:  IOpt=1 It=  1 EMax= 2.00D-15
 Solved reduced A of dimension   200 with    33 vectors.
 End of Minotr F.D. properties file   721 does not exist.
 End of Minotr F.D. properties file   722 does not exist.
 End of Minotr F.D. properties file   788 does not exist.

 **********************************************************************

            Population analysis using the SCF Density.

 **********************************************************************

 Alpha  occ. eigenvalues --  -19.28313 -19.25913 -19.12152 -10.35085 -10.26058
 Alpha  occ. eigenvalues --  -10.19911  -1.18017  -1.01422  -0.99513  -0.82876
 Alpha  occ. eigenvalues --   -0.68925  -0.60542  -0.58932  -0.55797  -0.52918
 Alpha  occ. eigenvalues --   -0.47598  -0.44435  -0.43243  -0.39829  -0.39487
 Alpha  occ. eigenvalues --   -0.37005  -0.32647  -0.24456  -0.22972
 Alpha virt. eigenvalues --   -0.06608  -0.04410  -0.02055   0.00813   0.01959
 Alpha virt. eigenvalues --    0.03714   0.05232   0.05865   0.07025   0.07539
 Alpha virt. eigenvalues --    0.08934   0.10659   0.11308   0.12052   0.12986
 Alpha virt. eigenvalues --    0.13884   0.16293   0.17627   0.18870   0.20180
 Alpha virt. eigenvalues --    0.21969   0.23143   0.23414   0.24093   0.25233
 Alpha virt. eigenvalues --    0.26318   0.26802   0.27388   0.28417   0.31717
 Alpha virt. eigenvalues --    0.32721   0.33989   0.34899   0.38221   0.41572
 Alpha virt. eigenvalues --    0.48728   0.62811   0.67380   0.67710   0.69334
 Alpha virt. eigenvalues --    0.72445   0.74728   0.79277   0.80534   0.83830
 Alpha virt. eigenvalues --    0.89077   0.92943   0.94857   0.96841   0.99112
 Alpha virt. eigenvalues --    1.03217   1.07856   1.11833   1.12445   1.17467
 Alpha virt. eigenvalues --    1.20001   1.22425   1.24447   1.25883   1.29540
 Alpha virt. eigenvalues --    1.30627   1.33066   1.35313   1.40795   1.46501
 Alpha virt. eigenvalues --    1.49174   1.53750   1.54457   1.57842   1.62197
 Alpha virt. eigenvalues --    1.65731   1.75934   1.78564   1.79501   1.83045
 Alpha virt. eigenvalues --    1.85589   1.88382   1.94077   1.99333   2.00883
 Alpha virt. eigenvalues --    2.07701   2.14955   2.22700   2.25812   2.30522
 Alpha virt. eigenvalues --    2.33003   2.37806   2.46772   2.53241   2.61796
 Alpha virt. eigenvalues --    2.65580   2.81071   2.83100   2.98222   3.07364
 Alpha virt. eigenvalues --    3.16445   3.91211   4.14405   4.23104   4.26344
 Alpha virt. eigenvalues --    4.33584   4.48932
          Condensed to atoms (all electrons):
               1          2          3          4          5          6
     1  C    5.982178  -0.636940   0.221725   0.003060   0.054829   0.072326
     2  C   -0.636940   7.566734  -0.409369   0.043769  -0.043537  -0.233087
     3  C    0.221725  -0.409369   5.145084  -0.014031   0.007021   0.412087
     4  O    0.003060   0.043769  -0.014031   8.139610   0.032423   0.003027
     5  O    0.054829  -0.043537   0.007021   0.032423   8.253297  -0.001474
     6  O    0.072326  -0.233087   0.412087   0.003027  -0.001474   8.296239
     7  H    0.003178   0.001717  -0.000104  -0.024069   0.196259  -0.000014
     8  H    0.385206  -0.031336  -0.021976  -0.019795  -0.000147   0.016331
     9  H    0.308995  -0.269713   0.052541  -0.136254   0.024474  -0.001430
    10  H    0.056336  -0.259416   0.478297  -0.000331   0.000024  -0.063359
    11  H   -0.002268   0.312652   0.008297  -0.003662  -0.000349   0.004352
    12  H    0.088688   0.010785   0.051971  -0.018344  -0.001810  -0.003474
               7          8          9         10         11         12
     1  C    0.003178   0.385206   0.308995   0.056336  -0.002268   0.088688
     2  C    0.001717  -0.031336  -0.269713  -0.259416   0.312652   0.010785
     3  C   -0.000104  -0.021976   0.052541   0.478297   0.008297   0.051971
     4  O   -0.024069  -0.019795  -0.136254  -0.000331  -0.003662  -0.018344
     5  O    0.196259  -0.000147   0.024474   0.000024  -0.000349  -0.001810
     6  O   -0.000014   0.016331  -0.001430  -0.063359   0.004352  -0.003474
     7  H    0.337423   0.000555  -0.000106  -0.000000   0.000009  -0.000171
     8  H    0.000555   0.403382  -0.032982   0.000586   0.002843  -0.027465
     9  H   -0.000106  -0.032982   0.850918  -0.000082   0.000890   0.098747
    10  H   -0.000000   0.000586  -0.000082   0.637616   0.000568   0.000033
    11  H    0.000009   0.002843   0.000890   0.000568   0.469310  -0.006695
    12  H   -0.000171  -0.027465   0.098747   0.000033  -0.006695   0.536594
 Mulliken charges:
               1
     1  C   -0.537312
     2  C   -0.052258
     3  C    0.068458
     4  O   -0.005403
     5  O   -0.521010
     6  O   -0.501523
     7  H    0.485325
     8  H    0.324799
     9  H    0.104004
    10  H    0.149728
    11  H    0.214052
    12  H    0.271140
 Sum of Mulliken charges =  -0.00000
 Mulliken charges with hydrogens summed into heavy atoms:
               1
     1  C    0.162631
     2  C    0.161794
     3  C    0.218186
     4  O   -0.005403
     5  O   -0.035686
     6  O   -0.501523
 APT charges:
               1
     1  C   -0.892117
     2  C   -0.235235
     3  C   -0.451888
     4  O    0.083250
     5  O   -0.840736
     6  O   -0.446764
     7  H    0.774670
     8  H    0.454401
     9  H    0.176970
    10  H    0.549314
    11  H    0.492670
    12  H    0.335466
 Sum of APT charges =  -0.00000
 APT charges with hydrogens summed into heavy atoms:
               1
     1  C    0.074719
     2  C    0.257435
     3  C    0.097425
     4  O    0.083250
     5  O   -0.066066
     6  O   -0.446764
 Electronic spatial extent (au):  <R**2>=            765.1363
 Charge=             -0.0000 electrons
 Dipole moment (field-independent basis, Debye):
    X=              3.6301    Y=              1.7051    Z=              0.2336  Tot=              4.0174
 Quadrupole moment (field-independent basis, Debye-Ang):
   XX=            -40.7296   YY=            -38.7864   ZZ=            -34.6873
   XY=             -8.2722   XZ=             -3.9832   YZ=              1.6400
 Traceless Quadrupole moment (field-independent basis, Debye-Ang):
   XX=             -2.6618   YY=             -0.7186   ZZ=              3.3804
   XY=             -8.2722   XZ=             -3.9832   YZ=              1.6400
 Octapole moment (field-independent basis, Debye-Ang**2):
  XXX=             43.1170  YYY=              0.0411  ZZZ=             -1.4888  XYY=             10.7365
  XXY=              6.9656  XXZ=            -19.1393  XZZ=              9.0245  YZZ=             -2.6248
  YYZ=             -1.5030  XYZ=              5.4680
 Hexadecapole moment (field-independent basis, Debye-Ang**3):
 XXXX=           -707.0247 YYYY=           -139.4846 ZZZZ=            -71.3130 XXXY=            -60.5440
 XXXZ=            -53.7288 YYYX=             -6.3753 YYYZ=             -0.8319 ZZZX=             -9.6441
 ZZZY=              3.3494 XXYY=           -160.0295 XXZZ=           -123.9618 YYZZ=            -37.1041
 XXYZ=              7.7976 YYXZ=             -2.6838 ZZXY=             -0.9540
 N-N= 2.345597990568D+02 E-N=-1.272898147577D+03  KE= 3.402523575964D+02
  Exact polarizability:   0.000   0.000   0.000   0.000   0.000   0.000
 Approx polarizability: 141.691  -7.454  81.664  23.317  -4.009  78.583
 Calling FoFJK, ICntrl=    100127 FMM=F ISym2X=0 I1Cent= 0 IOpClX= 0 NMat=1 NMatS=1 NMatT=0.
 -------------------------------------------------------------------
 Center     Atomic                   Forces (Hartrees/Bohr)
 Number     Number              X              Y              Z
 -------------------------------------------------------------------
      1        6           0.000000247    0.000000142   -0.000000077
      2        6          -0.000000221   -0.000000214   -0.000000037
      3        6          -0.000000010   -0.000000273    0.000000195
      4        8          -0.000000110   -0.000000299   -0.000000190
      5        8          -0.000000280    0.000000385    0.000000100
      6        8           0.000000030   -0.000000324    0.000000879
      7        1           0.000000081   -0.000000076   -0.000000752
      8        1           0.000000158    0.000000230    0.000000368
      9        1           0.000000320    0.000000565   -0.000000123
     10        1          -0.000000289   -0.000000432    0.000000339
     11        1          -0.000000220   -0.000000101   -0.000000484
     12        1           0.000000295    0.000000397   -0.000000218
 -------------------------------------------------------------------
 Cartesian Forces:  Max     0.000000879 RMS     0.000000323
 IRC-IRC-IRC-IRC-IRC-IRC-IRC-IRC-IRC-IRC-IRC-IRC-IRC-IRC-IRC-IRC-IRC-IRC
          ******** Start new reaction path calculation ********
 Supplied step size of   0.1500 bohr.
    Integration on MW PES will use step size of   0.1613 sqrt(amu)*bohr.
 Point Number:   0          Path Number:   1
 Calculating another point on the path.
 IRC-IRC-IRC-IRC-IRC-IRC-IRC-IRC-IRC-IRC-IRC-IRC-IRC-IRC-IRC-IRC-IRC-IRC
                          Input orientation:                          
 ---------------------------------------------------------------------
 Center     Atomic      Atomic             Coordinates (Angstroms)
 Number     Number       Type             X           Y           Z
 ---------------------------------------------------------------------
      1          6           0        0.371962    0.049314    0.319918
      2          6           0       -0.799544    0.899087    0.082185
      3          6           0       -2.051657    0.239224   -0.138641
      4          8           0        1.494610    0.437646   -0.344074
      5          8           0        2.589798   -0.476620    0.055125
      6          8           0       -2.247936   -0.978622   -0.040698
      7          1           0        2.995731   -0.612252   -0.821683
      8          1           0        0.128770   -1.015047    0.347985
      9          1           0        0.842963    0.104508    1.619544
     10          1           0       -2.890456    0.913494   -0.405577
     11          1           0       -0.665428    1.967242   -0.040412
     12          1           0       -0.037838    0.651193    1.394887
 ---------------------------------------------------------------------
                    Distance matrix (angstroms):
                    1          2          3          4          5
     1  C    0.000000
     2  C    1.466648   0.000000
     3  C    2.473918   1.432470   0.000000
     4  O    1.360891   2.378607   3.557750   0.000000
     5  O    2.294672   3.657997   4.700328   1.481444   0.000000
     6  O    2.837351   2.374601   1.237444   4.013042   4.864654
     7  H    2.936850   4.183926   5.164077   1.893082   0.975689
     8  H    1.092152   2.143905   2.562082   2.110635   2.536204
     9  H    1.383444   2.385929   3.389423   2.095571   2.415895
    10  H    3.452031   2.147098   1.108818   4.411238   5.672552
    11  H    2.210082   1.083501   2.217505   2.664140   4.071619
    12  H    1.298365   1.537802   2.564545   2.327656   3.157751
                    6          7          8          9         10
     6  O    0.000000
     7  H    5.314152   0.000000
     8  H    2.408554   3.122472   0.000000
     9  H    3.671952   3.332828   1.838569   0.000000
    10  H    2.031273   6.094936   3.660991   4.323654   0.000000
    11  H    3.344017   4.546236   3.110571   2.915557   2.488871
    12  H    3.098667   3.963838   1.974872   1.060728   3.383474
                   11         12
    11  H    0.000000
    12  H    2.045956   0.000000
 Symmetry turned off by external request.
 Stoichiometry    C3H6O3
 Framework group  C1[X(C3H6O3)]
 Deg. of freedom    30
 Full point group                 C1      NOp   1
 Rotational constants (GHZ):          10.5317953           1.6223391           1.4804491
 Standard basis: 6-31+G(d) (6D, 7F)
   126 basis functions,   216 primitive gaussians,   126 cartesian basis functions
    24 alpha electrons       24 beta electrons
       nuclear repulsion energy       234.6861464711 Hartrees.
 NAtoms=   12 NActive=   12 NUniq=   12 SFac= 1.00D+00 NAtFMM=   60 NAOKFM=F Big=F
 Integral buffers will be    131072 words long.
 Raffenetti 2 integral format.
 Two-electron integral symmetry is turned off.
 One-electron integrals computed using PRISM.
 NBasis=   126 RedAO= T EigKep=  8.96D-05  NBF=   126
 NBsUse=   126 1.00D-06 EigRej= -1.00D+00 NBFU=   126
 Initial guess from the checkpoint file:  "/scratch/bell/zhao922/YARP/paper-example/KHP-network/pp_0/IRC-folder/Gau-38220.chk"
 B after Tr=     0.007483    0.039137    0.040879
         Rot=    1.000000    0.000254    0.000079   -0.000023 Ang=   0.03 deg.
 ExpMin= 4.38D-02 ExpMax= 5.48D+03 ExpMxC= 8.25D+02 IAcc=3 IRadAn=         5 AccDes= 0.00D+00
 Harris functional with IExCor=  402 and IRadAn=       5 diagonalized for initial guess.
 HarFok:  IExCor=  402 AccDes= 0.00D+00 IRadAn=         5 IDoV= 1 UseB2=F ITyADJ=14
 ICtDFT=  3500011 ScaDFX=  1.000000  1.000000  1.000000  1.000000
 FoFCou: FMM=F IPFlag=           0 FMFlag=      100000 FMFlg1=           0
         NFxFlg=           0 DoJE=T BraDBF=F KetDBF=T FulRan=T
         wScrn=  0.000000 ICntrl=       500 IOpCl=  0 I1Cent=   200000004 NGrid=           0
         NMat0=    1 NMatS0=      1 NMatT0=    0 NMatD0=    1 NMtDS0=    0 NMtDT0=    0
 Symmetry not used in FoFCou.
 Keep R1 ints in memory in canonical form, NReq=47237219.
 Requested convergence on RMS density matrix=1.00D-08 within 128 cycles.
 Requested convergence on MAX density matrix=1.00D-06.
 Requested convergence on             energy=1.00D-06.
 No special actions if energy rises.
 SCF Done:  E(RB3LYP) =  -343.342445735     A.U. after   12 cycles
            NFock= 12  Conv=0.74D-08     -V/T= 2.0091
 DoSCS=F DFT=T ScalE2(SS,OS)=  1.000000  1.000000
 Range of M.O.s used for correlation:     1   126
 NBasis=   126 NAE=    24 NBE=    24 NFC=     0 NFV=     0
 NROrb=    126 NOA=    24 NOB=    24 NVA=   102 NVB=   102

 **** Warning!!: The largest alpha MO coefficient is  0.33530872D+02

 Symmetrizing basis deriv contribution to polar:
 IMax=3 JMax=2 DiffMx= 0.00D+00
 G2DrvN: will do    13 centers at a time, making    1 passes.
 Calling FoFCou, ICntrl=  3107 FMM=F I1Cent=   0 AccDes= 0.00D+00.
 End of G2Drv F.D. properties file   721 does not exist.
 End of G2Drv F.D. properties file   722 does not exist.
 End of G2Drv F.D. properties file   788 does not exist.
          IDoAtm=111111111111
          Differentiating once with respect to nuclear coordinates.
 Keep R1 ints in memory in canonical form, NReq=47193241.
          There are    39 degrees of freedom in the 1st order CPHF.  IDoFFX=6 NUNeed=     0.
     33 vectors produced by pass  0 Test12= 6.28D-15 2.56D-09 XBig12= 2.22D-01 2.25D-01.
 AX will form    33 AO Fock derivatives at one time.
     33 vectors produced by pass  1 Test12= 6.28D-15 2.56D-09 XBig12= 4.33D-02 5.44D-02.
     33 vectors produced by pass  2 Test12= 6.28D-15 2.56D-09 XBig12= 9.93D-04 5.30D-03.
     33 vectors produced by pass  3 Test12= 6.28D-15 2.56D-09 XBig12= 3.36D-06 3.42D-04.
     33 vectors produced by pass  4 Test12= 6.28D-15 2.56D-09 XBig12= 6.32D-09 1.18D-05.
     30 vectors produced by pass  5 Test12= 6.28D-15 2.56D-09 XBig12= 8.01D-12 3.71D-07.
      5 vectors produced by pass  6 Test12= 6.28D-15 2.56D-09 XBig12= 6.90D-15 9.81D-09.
 InvSVY:  IOpt=1 It=  1 EMax= 1.78D-15
 Solved reduced A of dimension   200 with    33 vectors.
 End of Minotr F.D. properties file   721 does not exist.
 End of Minotr F.D. properties file   722 does not exist.
 End of Minotr F.D. properties file   788 does not exist.
 Calling FoFJK, ICntrl=    100127 FMM=F ISym2X=0 I1Cent= 0 IOpClX= 0 NMat=1 NMatS=1 NMatT=0.
 -------------------------------------------------------------------
 Center     Atomic                   Forces (Hartrees/Bohr)
 Number     Number              X              Y              Z
 -------------------------------------------------------------------
      1        6           0.013956184   -0.007959805    0.017789366
      2        6           0.000163582    0.003235673    0.009682695
      3        6          -0.001803651   -0.001280309   -0.000274240
      4        8           0.004209252    0.000426629   -0.007111369
      5        8          -0.000828873    0.000879165   -0.000581855
      6        8           0.000453302    0.001473731   -0.000168475
      7        1           0.000010652   -0.000045929    0.000071399
      8        1          -0.001062748   -0.000232318   -0.002213333
      9        1          -0.000417881   -0.003166251   -0.009047729
     10        1           0.000011502   -0.000100075   -0.000285740
     11        1           0.000116361    0.000089957   -0.000611106
     12        1          -0.014807683    0.006679534   -0.007249613
 -------------------------------------------------------------------
 Cartesian Forces:  Max     0.017789366 RMS     0.005704694
 IRC-IRC-IRC-IRC-IRC-IRC-IRC-IRC-IRC-IRC-IRC-IRC-IRC-IRC-IRC-IRC-IRC-IRC
 Pt  1 Step number   1 out of a maximum of 100
 Modified Bulirsch-Stoer Extrapolation Cycles:
    EPS =    0.000010000000000
      PEZero:  N= 2 I= 1 D=  4.20D-04 Err=  8.63D-04
      PEZero:  N= 3 I= 2 D=  4.20D-04 Err=  5.75D-04
      PEZero:  N= 3 I= 1 D=  8.40D-04 Err=  9.09D-08
 Maximum DWI energy   std dev =  0.000002099 at pt     1
 Maximum DWI gradient std dev =  0.019710972 at pt    38
 CORRECTOR INTEGRATION CONVERGENCE:
   Recorrection delta-x convergence threshold:    0.010000
   Delta-x Convergence Met
 Point Number:   1          Path Number:   1
   CHANGE IN THE REACTION COORDINATE =    0.16120
   NET REACTION COORDINATE UP TO THIS POINT =    0.16120
  # OF POINTS ALONG THE PATH =   1
  # OF STEPS =   1

 Calculating another point on the path.
 IRC-IRC-IRC-IRC-IRC-IRC-IRC-IRC-IRC-IRC-IRC-IRC-IRC-IRC-IRC-IRC-IRC-IRC
                          Input orientation:                          
 ---------------------------------------------------------------------
 Center     Atomic      Atomic             Coordinates (Angstroms)
 Number     Number       Type             X           Y           Z
 ---------------------------------------------------------------------
      1          6           0        0.376492    0.046699    0.325495
      2          6           0       -0.799306    0.900107    0.085545
      3          6           0       -2.052295    0.238777   -0.138716
      4          8           0        1.495655    0.437747   -0.345829
      5          8           0        2.589585   -0.476395    0.054993
      6          8           0       -2.247828   -0.978236   -0.040743
      7          1           0        2.995790   -0.612442   -0.821439
      8          1           0        0.124839   -1.016197    0.339180
      9          1           0        0.840776    0.092818    1.585053
     10          1           0       -2.890476    0.913068   -0.406699
     11          1           0       -0.664960    1.967437   -0.043311
     12          1           0       -0.096336    0.677470    1.367108
 ---------------------------------------------------------------------
                    Distance matrix (angstroms):
                    1          2          3          4          5
     1  C    0.000000
     2  C    1.472543   0.000000
     3  C    2.480201   1.434445   0.000000
     4  O    1.362395   2.380485   3.559556   0.000000
     5  O    2.290105   3.657906   4.700643   1.480877   0.000000
     6  O    2.841070   2.375361   1.236508   4.013945   4.864317
     7  H    2.934390   4.184875   5.164673   1.891959   0.975522
     8  H    1.092366   2.142568   2.557979   2.112422   2.539118
     9  H    1.343194   2.364341   3.370838   2.067885   2.392367
    10  H    3.458292   2.148363   1.108616   4.412231   5.672287
    11  H    2.215823   1.083441   2.218573   2.664531   4.071123
    12  H    1.306290   1.478559   2.507136   2.350756   3.204251
                    6          7          8          9         10
     6  O    0.000000
     7  H    5.314021   0.000000
     8  H    2.403192   3.122885   0.000000
     9  H    3.651006   3.306460   1.815124   0.000000
    10  H    2.030751   6.094860   3.656573   4.308379   0.000000
    11  H    3.344019   4.545586   3.110008   2.903964   2.489310
    12  H    3.058157   4.001856   1.993504   1.125832   3.317998
                   11         12
    11  H    0.000000
    12  H    1.994148   0.000000
 Symmetry turned off by external request.
 Stoichiometry    C3H6O3
 Framework group  C1[X(C3H6O3)]
 Deg. of freedom    30
 Full point group                 C1      NOp   1
 Rotational constants (GHZ):          10.5505253           1.6224979           1.4798755
 Standard basis: 6-31+G(d) (6D, 7F)
   126 basis functions,   216 primitive gaussians,   126 cartesian basis functions
    24 alpha electrons       24 beta electrons
       nuclear repulsion energy       234.7901715361 Hartrees.
 NAtoms=   12 NActive=   12 NUniq=   12 SFac= 1.00D+00 NAtFMM=   60 NAOKFM=F Big=F
 Integral buffers will be    131072 words long.
 Raffenetti 2 integral format.
 Two-electron integral symmetry is turned off.
 One-electron integrals computed using PRISM.
 NBasis=   126 RedAO= T EigKep=  9.12D-05  NBF=   126
 NBsUse=   126 1.00D-06 EigRej= -1.00D+00 NBFU=   126
 Initial guess from the checkpoint file:  "/scratch/bell/zhao922/YARP/paper-example/KHP-network/pp_0/IRC-folder/Gau-38220.chk"
 B after Tr=    -0.001242    0.000230   -0.001441
         Rot=    1.000000    0.000293    0.000092   -0.000030 Ang=   0.04 deg.
 ExpMin= 4.38D-02 ExpMax= 5.48D+03 ExpMxC= 8.25D+02 IAcc=3 IRadAn=         5 AccDes= 0.00D+00
 Harris functional with IExCor=  402 and IRadAn=       5 diagonalized for initial guess.
 HarFok:  IExCor=  402 AccDes= 0.00D+00 IRadAn=         5 IDoV= 1 UseB2=F ITyADJ=14
 ICtDFT=  3500011 ScaDFX=  1.000000  1.000000  1.000000  1.000000
 FoFCou: FMM=F IPFlag=           0 FMFlag=      100000 FMFlg1=           0
         NFxFlg=           0 DoJE=T BraDBF=F KetDBF=T FulRan=T
         wScrn=  0.000000 ICntrl=       500 IOpCl=  0 I1Cent=   200000004 NGrid=           0
         NMat0=    1 NMatS0=      1 NMatT0=    0 NMatD0=    1 NMtDS0=    0 NMtDT0=    0
 Symmetry not used in FoFCou.
 Keep R1 ints in memory in canonical form, NReq=47237219.
 Requested convergence on RMS density matrix=1.00D-08 within 128 cycles.
 Requested convergence on MAX density matrix=1.00D-06.
 Requested convergence on             energy=1.00D-06.
 No special actions if energy rises.
 SCF Done:  E(RB3LYP) =  -343.347631702     A.U. after   12 cycles
            NFock= 12  Conv=0.95D-08     -V/T= 2.0090
 DoSCS=F DFT=T ScalE2(SS,OS)=  1.000000  1.000000
 Range of M.O.s used for correlation:     1   126
 NBasis=   126 NAE=    24 NBE=    24 NFC=     0 NFV=     0
 NROrb=    126 NOA=    24 NOB=    24 NVA=   102 NVB=   102

 **** Warning!!: The largest alpha MO coefficient is  0.33855190D+02

 Symmetrizing basis deriv contribution to polar:
 IMax=3 JMax=2 DiffMx= 0.00D+00
 G2DrvN: will do    13 centers at a time, making    1 passes.
 Calling FoFCou, ICntrl=  3107 FMM=F I1Cent=   0 AccDes= 0.00D+00.
 End of G2Drv F.D. properties file   721 does not exist.
 End of G2Drv F.D. properties file   722 does not exist.
 End of G2Drv F.D. properties file   788 does not exist.
          IDoAtm=111111111111
          Differentiating once with respect to nuclear coordinates.
 Keep R1 ints in memory in canonical form, NReq=47193241.
          There are    39 degrees of freedom in the 1st order CPHF.  IDoFFX=6 NUNeed=     0.
     33 vectors produced by pass  0 Test12= 6.28D-15 2.56D-09 XBig12= 2.10D-01 1.59D-01.
 AX will form    33 AO Fock derivatives at one time.
     33 vectors produced by pass  1 Test12= 6.28D-15 2.56D-09 XBig12= 3.91D-02 4.93D-02.
     33 vectors produced by pass  2 Test12= 6.28D-15 2.56D-09 XBig12= 9.09D-04 6.42D-03.
     33 vectors produced by pass  3 Test12= 6.28D-15 2.56D-09 XBig12= 3.11D-06 3.65D-04.
     33 vectors produced by pass  4 Test12= 6.28D-15 2.56D-09 XBig12= 6.19D-09 1.21D-05.
     29 vectors produced by pass  5 Test12= 6.28D-15 2.56D-09 XBig12= 7.47D-12 3.49D-07.
      5 vectors produced by pass  6 Test12= 6.28D-15 2.56D-09 XBig12= 6.67D-15 9.98D-09.
 InvSVY:  IOpt=1 It=  1 EMax= 2.33D-15
 Solved reduced A of dimension   199 with    33 vectors.
 End of Minotr F.D. properties file   721 does not exist.
 End of Minotr F.D. properties file   722 does not exist.
 End of Minotr F.D. properties file   788 does not exist.
 Calling FoFJK, ICntrl=    100127 FMM=F ISym2X=0 I1Cent= 0 IOpClX= 0 NMat=1 NMatS=1 NMatT=0.
 -------------------------------------------------------------------
 Center     Atomic                   Forces (Hartrees/Bohr)
 Number     Number              X              Y              Z
 -------------------------------------------------------------------
      1        6           0.026576041   -0.015814538    0.031910066
      2        6           0.002303193    0.005833954    0.020752687
      3        6          -0.004068656   -0.002903852   -0.000478192
      4        8           0.008357043    0.000822427   -0.014052593
      5        8          -0.001606452    0.001784249   -0.001005551
      6        8           0.000862388    0.003267557   -0.000359295
      7        1           0.000026052   -0.000102238    0.000137614
      8        1          -0.001883004   -0.000558806   -0.004548393
      9        1          -0.001387109   -0.005467241   -0.016741211
     10        1          -0.000031973   -0.000229625   -0.000569078
     11        1           0.000223128    0.000102287   -0.001640985
     12        1          -0.029370652    0.013265825   -0.013405070
 -------------------------------------------------------------------
 Cartesian Forces:  Max     0.031910066 RMS     0.010947205
 IRC-IRC-IRC-IRC-IRC-IRC-IRC-IRC-IRC-IRC-IRC-IRC-IRC-IRC-IRC-IRC-IRC-IRC
 Pt  2 Step number   1 out of a maximum of 100
 Modified Bulirsch-Stoer Extrapolation Cycles:
    EPS =    0.000010000000000
      PEZero:  N= 2 I= 1 D=  8.40D-04 Err=  2.71D-05
      PEZero:  N= 3 I= 2 D=  8.40D-04 Err=  1.80D-05
      PEZero:  N= 3 I= 1 D=  1.68D-03 Err=  5.23D-08
 Maximum DWI energy   std dev =  0.000011943 at pt    27
 Maximum DWI gradient std dev =  0.006839839 at pt    11
 CORRECTOR INTEGRATION CONVERGENCE:
   Recorrection delta-x convergence threshold:    0.010000
   Delta-x Convergence Met
 Point Number:   2          Path Number:   1
   CHANGE IN THE REACTION COORDINATE =    0.16117
   NET REACTION COORDINATE UP TO THIS POINT =    0.32237
  # OF POINTS ALONG THE PATH =   2
  # OF STEPS =   1

 Calculating another point on the path.
 IRC-IRC-IRC-IRC-IRC-IRC-IRC-IRC-IRC-IRC-IRC-IRC-IRC-IRC-IRC-IRC-IRC-IRC
                          Input orientation:                          
 ---------------------------------------------------------------------
 Center     Atomic      Atomic             Coordinates (Angstroms)
 Number     Number       Type             X           Y           Z
 ---------------------------------------------------------------------
      1          6           0        0.380935    0.043983    0.330653
      2          6           0       -0.798744    0.901056    0.089222
      3          6           0       -2.053036    0.238245   -0.138796
      4          8           0        1.496730    0.437852   -0.347630
      5          8           0        2.589384   -0.476165    0.054874
      6          8           0       -2.247719   -0.977793   -0.040790
      7          1           0        2.995847   -0.612664   -0.821161
      8          1           0        0.121238   -1.017405    0.329728
      9          1           0        0.837524    0.082429    1.552208
     10          1           0       -2.890592    0.912564   -0.407861
     11          1           0       -0.664520    1.967565   -0.047083
     12          1           0       -0.156234    0.704684    1.341036
 ---------------------------------------------------------------------
                    Distance matrix (angstroms):
                    1          2          3          4          5
     1  C    0.000000
     2  C    1.478007   0.000000
     3  C    2.486430   1.436857   0.000000
     4  O    1.363891   2.382141   3.561501   0.000000
     5  O    2.285576   3.657503   4.701058   1.480314   0.000000
     6  O    2.844612   2.376237   1.235417   4.014860   4.863985
     7  H    2.931830   4.185578   5.165354   1.890811   0.975336
     8  H    1.092697   2.141192   2.554142   2.113897   2.541698
     9  H    1.304664   2.342617   3.352478   2.042122   2.371297
    10  H    3.464494   2.150128   1.108423   4.413340   5.672109
    11  H    2.221673   1.083530   2.219669   2.664837   4.070639
    12  H    1.321344   1.420711   2.450576   2.378042   3.253772
                    6          7          8          9         10
     6  O    0.000000
     7  H    5.313877   0.000000
     8  H    2.398085   3.122777   0.000000
     9  H    3.630488   3.282437   1.793644   0.000000
    10  H    2.030142   6.094858   3.652388   4.292999   0.000000
    11  H    3.343904   4.544785   3.109574   2.892682   2.489695
    12  H    3.019020   4.043033   2.016265   1.191365   3.252471
                   11         12
    11  H    0.000000
    12  H    1.944247   0.000000
 Symmetry turned off by external request.
 Stoichiometry    C3H6O3
 Framework group  C1[X(C3H6O3)]
 Deg. of freedom    30
 Full point group                 C1      NOp   1
 Rotational constants (GHZ):          10.5667641           1.6225536           1.4792751
 Standard basis: 6-31+G(d) (6D, 7F)
   126 basis functions,   216 primitive gaussians,   126 cartesian basis functions
    24 alpha electrons       24 beta electrons
       nuclear repulsion energy       234.8879781307 Hartrees.
 NAtoms=   12 NActive=   12 NUniq=   12 SFac= 1.00D+00 NAtFMM=   60 NAOKFM=F Big=F
 Integral buffers will be    131072 words long.
 Raffenetti 2 integral format.
 Two-electron integral symmetry is turned off.
 One-electron integrals computed using PRISM.
 NBasis=   126 RedAO= T EigKep=  9.25D-05  NBF=   126
 NBsUse=   126 1.00D-06 EigRej= -1.00D+00 NBFU=   126
 Initial guess from the checkpoint file:  "/scratch/bell/zhao922/YARP/paper-example/KHP-network/pp_0/IRC-folder/Gau-38220.chk"
 B after Tr=    -0.001286    0.000268   -0.001402
         Rot=    1.000000    0.000321    0.000100   -0.000033 Ang=   0.04 deg.
 ExpMin= 4.38D-02 ExpMax= 5.48D+03 ExpMxC= 8.25D+02 IAcc=3 IRadAn=         5 AccDes= 0.00D+00
 Harris functional with IExCor=  402 and IRadAn=       5 diagonalized for initial guess.
 HarFok:  IExCor=  402 AccDes= 0.00D+00 IRadAn=         5 IDoV= 1 UseB2=F ITyADJ=14
 ICtDFT=  3500011 ScaDFX=  1.000000  1.000000  1.000000  1.000000
 FoFCou: FMM=F IPFlag=           0 FMFlag=      100000 FMFlg1=           0
         NFxFlg=           0 DoJE=T BraDBF=F KetDBF=T FulRan=T
         wScrn=  0.000000 ICntrl=       500 IOpCl=  0 I1Cent=   200000004 NGrid=           0
         NMat0=    1 NMatS0=      1 NMatT0=    0 NMatD0=    1 NMtDS0=    0 NMtDT0=    0
 Symmetry not used in FoFCou.
 Keep R1 ints in memory in canonical form, NReq=47237219.
 Requested convergence on RMS density matrix=1.00D-08 within 128 cycles.
 Requested convergence on MAX density matrix=1.00D-06.
 Requested convergence on             energy=1.00D-06.
 No special actions if energy rises.
 SCF Done:  E(RB3LYP) =  -343.355845529     A.U. after   12 cycles
            NFock= 12  Conv=0.99D-08     -V/T= 2.0090
 DoSCS=F DFT=T ScalE2(SS,OS)=  1.000000  1.000000
 Range of M.O.s used for correlation:     1   126
 NBasis=   126 NAE=    24 NBE=    24 NFC=     0 NFV=     0
 NROrb=    126 NOA=    24 NOB=    24 NVA=   102 NVB=   102

 **** Warning!!: The largest alpha MO coefficient is  0.32793038D+02

 Symmetrizing basis deriv contribution to polar:
 IMax=3 JMax=2 DiffMx= 0.00D+00
 G2DrvN: will do    13 centers at a time, making    1 passes.
 Calling FoFCou, ICntrl=  3107 FMM=F I1Cent=   0 AccDes= 0.00D+00.
 End of G2Drv F.D. properties file   721 does not exist.
 End of G2Drv F.D. properties file   722 does not exist.
 End of G2Drv F.D. properties file   788 does not exist.
          IDoAtm=111111111111
          Differentiating once with respect to nuclear coordinates.
 Keep R1 ints in memory in canonical form, NReq=47193241.
          There are    39 degrees of freedom in the 1st order CPHF.  IDoFFX=6 NUNeed=     0.
     33 vectors produced by pass  0 Test12= 6.28D-15 2.56D-09 XBig12= 1.99D-01 1.48D-01.
 AX will form    33 AO Fock derivatives at one time.
     33 vectors produced by pass  1 Test12= 6.28D-15 2.56D-09 XBig12= 3.57D-02 4.12D-02.
     33 vectors produced by pass  2 Test12= 6.28D-15 2.56D-09 XBig12= 8.57D-04 6.56D-03.
     33 vectors produced by pass  3 Test12= 6.28D-15 2.56D-09 XBig12= 3.11D-06 3.84D-04.
     33 vectors produced by pass  4 Test12= 6.28D-15 2.56D-09 XBig12= 6.54D-09 1.48D-05.
     29 vectors produced by pass  5 Test12= 6.28D-15 2.56D-09 XBig12= 7.61D-12 3.96D-07.
      4 vectors produced by pass  6 Test12= 6.28D-15 2.56D-09 XBig12= 7.04D-15 9.93D-09.
 InvSVY:  IOpt=1 It=  1 EMax= 2.00D-15
 Solved reduced A of dimension   198 with    33 vectors.
 End of Minotr F.D. properties file   721 does not exist.
 End of Minotr F.D. properties file   722 does not exist.
 End of Minotr F.D. properties file   788 does not exist.
 Calling FoFJK, ICntrl=    100127 FMM=F ISym2X=0 I1Cent= 0 IOpClX= 0 NMat=1 NMatS=1 NMatT=0.
 -------------------------------------------------------------------
 Center     Atomic                   Forces (Hartrees/Bohr)
 Number     Number              X              Y              Z
 -------------------------------------------------------------------
      1        6           0.036622170   -0.023117671    0.041107892
      2        6           0.006026453    0.007637948    0.032064620
      3        6          -0.006610698   -0.004805637   -0.000727261
      4        8           0.012136313    0.001174025   -0.020321902
      5        8          -0.002149032    0.002588138   -0.001287947
      6        8           0.001219453    0.005256300   -0.000541901
      7        1           0.000044731   -0.000172143    0.000209290
      8        1          -0.002386399   -0.000855003   -0.006872075
      9        1          -0.002680971   -0.006726872   -0.022165470
     10        1          -0.000124772   -0.000381871   -0.000826398
     11        1           0.000301860    0.000071495   -0.002999382
     12        1          -0.042399107    0.019331290   -0.017639467
 -------------------------------------------------------------------
 Cartesian Forces:  Max     0.042399107 RMS     0.015320254
 IRC-IRC-IRC-IRC-IRC-IRC-IRC-IRC-IRC-IRC-IRC-IRC-IRC-IRC-IRC-IRC-IRC-IRC
 Pt  3 Step number   1 out of a maximum of 100
 Modified Bulirsch-Stoer Extrapolation Cycles:
    EPS =    0.000010000000000
      PEZero:  N= 2 I= 1 D=  8.40D-04 Err=  2.75D-05
      PEZero:  N= 3 I= 2 D=  8.40D-04 Err=  1.83D-05
      PEZero:  N= 3 I= 1 D=  1.68D-03 Err=  3.60D-08
 Maximum DWI energy   std dev =  0.000016020 at pt    28
 Maximum DWI gradient std dev =  0.003494002 at pt    35
 CORRECTOR INTEGRATION CONVERGENCE:
   Recorrection delta-x convergence threshold:    0.010000
   Delta-x Convergence Met
 Point Number:   3          Path Number:   1
   CHANGE IN THE REACTION COORDINATE =    0.16118
   NET REACTION COORDINATE UP TO THIS POINT =    0.48354
  # OF POINTS ALONG THE PATH =   3
  # OF STEPS =   1

 Calculating another point on the path.
 IRC-IRC-IRC-IRC-IRC-IRC-IRC-IRC-IRC-IRC-IRC-IRC-IRC-IRC-IRC-IRC-IRC-IRC
                          Input orientation:                          
 ---------------------------------------------------------------------
 Center     Atomic      Atomic             Coordinates (Angstroms)
 Number     Number       Type             X           Y           Z
 ---------------------------------------------------------------------
      1          6           0        0.385288    0.041157    0.335368
      2          6           0       -0.797863    0.901944    0.093250
      3          6           0       -2.053880    0.237628   -0.138891
      4          8           0        1.497840    0.437957   -0.349486
      5          8           0        2.589197   -0.475928    0.054762
      6          8           0       -2.247609   -0.977291   -0.040841
      7          1           0        2.995925   -0.612935   -0.820852
      8          1           0        0.118031   -1.018685    0.319571
      9          1           0        0.833176    0.073500    1.521534
     10          1           0       -2.890830    0.911974   -0.409056
     11          1           0       -0.664087    1.967600   -0.051891
     12          1           0       -0.217608    0.732763    1.316610
 ---------------------------------------------------------------------
                    Distance matrix (angstroms):
                    1          2          3          4          5
     1  C    0.000000
     2  C    1.483044   0.000000
     3  C    2.492602   1.439716   0.000000
     4  O    1.365374   2.383601   3.563593   0.000000
     5  O    2.281081   3.656800   4.701577   1.479750   0.000000
     6  O    2.847967   2.377239   1.234169   4.015791   4.863660
     7  H    2.929182   4.186080   5.166145   1.889661   0.975140
     8  H    1.093134   2.139836   2.550629   2.115021   2.543888
     9  H    1.268322   2.320906   3.334523   2.018743   2.353062
    10  H    3.470654   2.152422   1.108249   4.414597   5.672045
    11  H    2.227630   1.083782   2.220787   2.665014   4.070142
    12  H    1.343368   1.364525   2.394898   2.409470   3.306259
                    6          7          8          9         10
     6  O    0.000000
     7  H    5.313738   0.000000
     8  H    2.393295   3.122094   0.000000
     9  H    3.610597   3.261203   1.774546   0.000000
    10  H    2.029443   6.094982   3.648505   4.277668   0.000000
    11  H    3.343658   4.543803   3.109275   2.881853   2.490040
    12  H    2.981252   4.087351   2.043113   1.257287   3.186872
                   11         12
    11  H    0.000000
    12  H    1.896565   0.000000
 Symmetry turned off by external request.
 Stoichiometry    C3H6O3
 Framework group  C1[X(C3H6O3)]
 Deg. of freedom    30
 Full point group                 C1      NOp   1
 Rotational constants (GHZ):          10.5802933           1.6224942           1.4786414
 Standard basis: 6-31+G(d) (6D, 7F)
   126 basis functions,   216 primitive gaussians,   126 cartesian basis functions
    24 alpha electrons       24 beta electrons
       nuclear repulsion energy       234.9777498408 Hartrees.
 NAtoms=   12 NActive=   12 NUniq=   12 SFac= 1.00D+00 NAtFMM=   60 NAOKFM=F Big=F
 Integral buffers will be    131072 words long.
 Raffenetti 2 integral format.
 Two-electron integral symmetry is turned off.
 One-electron integrals computed using PRISM.
 NBasis=   126 RedAO= T EigKep=  9.37D-05  NBF=   126
 NBsUse=   126 1.00D-06 EigRej= -1.00D+00 NBFU=   126
 Initial guess from the checkpoint file:  "/scratch/bell/zhao922/YARP/paper-example/KHP-network/pp_0/IRC-folder/Gau-38220.chk"
 B after Tr=    -0.001330    0.000306   -0.001359
         Rot=    1.000000    0.000351    0.000108   -0.000037 Ang=   0.04 deg.
 ExpMin= 4.38D-02 ExpMax= 5.48D+03 ExpMxC= 8.25D+02 IAcc=3 IRadAn=         5 AccDes= 0.00D+00
 Harris functional with IExCor=  402 and IRadAn=       5 diagonalized for initial guess.
 HarFok:  IExCor=  402 AccDes= 0.00D+00 IRadAn=         5 IDoV= 1 UseB2=F ITyADJ=14
 ICtDFT=  3500011 ScaDFX=  1.000000  1.000000  1.000000  1.000000
 FoFCou: FMM=F IPFlag=           0 FMFlag=      100000 FMFlg1=           0
         NFxFlg=           0 DoJE=T BraDBF=F KetDBF=T FulRan=T
         wScrn=  0.000000 ICntrl=       500 IOpCl=  0 I1Cent=   200000004 NGrid=           0
         NMat0=    1 NMatS0=      1 NMatT0=    0 NMatD0=    1 NMtDS0=    0 NMtDT0=    0
 Symmetry not used in FoFCou.
 Keep R1 ints in memory in canonical form, NReq=47237219.
 Requested convergence on RMS density matrix=1.00D-08 within 128 cycles.
 Requested convergence on MAX density matrix=1.00D-06.
 Requested convergence on             energy=1.00D-06.
 No special actions if energy rises.
 SCF Done:  E(RB3LYP) =  -343.366487213     A.U. after   12 cycles
            NFock= 12  Conv=0.80D-08     -V/T= 2.0089
 DoSCS=F DFT=T ScalE2(SS,OS)=  1.000000  1.000000
 Range of M.O.s used for correlation:     1   126
 NBasis=   126 NAE=    24 NBE=    24 NFC=     0 NFV=     0
 NROrb=    126 NOA=    24 NOB=    24 NVA=   102 NVB=   102

 **** Warning!!: The largest alpha MO coefficient is  0.29523783D+02

 Symmetrizing basis deriv contribution to polar:
 IMax=3 JMax=2 DiffMx= 0.00D+00
 G2DrvN: will do    13 centers at a time, making    1 passes.
 Calling FoFCou, ICntrl=  3107 FMM=F I1Cent=   0 AccDes= 0.00D+00.
 End of G2Drv F.D. properties file   721 does not exist.
 End of G2Drv F.D. properties file   722 does not exist.
 End of G2Drv F.D. properties file   788 does not exist.
          IDoAtm=111111111111
          Differentiating once with respect to nuclear coordinates.
 Keep R1 ints in memory in canonical form, NReq=47193241.
          There are    39 degrees of freedom in the 1st order CPHF.  IDoFFX=6 NUNeed=     0.
     33 vectors produced by pass  0 Test12= 6.28D-15 2.56D-09 XBig12= 1.88D-01 1.26D-01.
 AX will form    33 AO Fock derivatives at one time.
     33 vectors produced by pass  1 Test12= 6.28D-15 2.56D-09 XBig12= 3.29D-02 4.32D-02.
     33 vectors produced by pass  2 Test12= 6.28D-15 2.56D-09 XBig12= 8.26D-04 6.46D-03.
     33 vectors produced by pass  3 Test12= 6.28D-15 2.56D-09 XBig12= 3.28D-06 3.70D-04.
     33 vectors produced by pass  4 Test12= 6.28D-15 2.56D-09 XBig12= 7.29D-09 1.83D-05.
     27 vectors produced by pass  5 Test12= 6.28D-15 2.56D-09 XBig12= 8.33D-12 4.79D-07.
      4 vectors produced by pass  6 Test12= 6.28D-15 2.56D-09 XBig12= 7.70D-15 1.04D-08.
 InvSVY:  IOpt=1 It=  1 EMax= 1.78D-15
 Solved reduced A of dimension   196 with    33 vectors.
 End of Minotr F.D. properties file   721 does not exist.
 End of Minotr F.D. properties file   722 does not exist.
 End of Minotr F.D. properties file   788 does not exist.
 Calling FoFJK, ICntrl=    100127 FMM=F ISym2X=0 I1Cent= 0 IOpClX= 0 NMat=1 NMatS=1 NMatT=0.
 -------------------------------------------------------------------
 Center     Atomic                   Forces (Hartrees/Bohr)
 Number     Number              X              Y              Z
 -------------------------------------------------------------------
      1        6           0.043711671   -0.029305989    0.045583707
      2        6           0.010390804    0.008795027    0.042671585
      3        6          -0.009098218   -0.006689208   -0.001135025
      4        8           0.015329442    0.001396165   -0.025561794
      5        8          -0.002429654    0.003247688   -0.001504564
      6        8           0.001499554    0.007179306   -0.000695972
      7        1           0.000084539   -0.000261300    0.000280026
      8        1          -0.002545313   -0.001113960   -0.008990381
      9        1          -0.004150873   -0.006953633   -0.024977189
     10        1          -0.000269829   -0.000540101   -0.001028479
     11        1           0.000378758   -0.000016513   -0.004601197
     12        1          -0.052900880    0.024262519   -0.020040717
 -------------------------------------------------------------------
 Cartesian Forces:  Max     0.052900880 RMS     0.018660298
 IRC-IRC-IRC-IRC-IRC-IRC-IRC-IRC-IRC-IRC-IRC-IRC-IRC-IRC-IRC-IRC-IRC-IRC
 Pt  4 Step number   1 out of a maximum of 100
 Modified Bulirsch-Stoer Extrapolation Cycles:
    EPS =    0.000010000000000
      PEZero:  N= 2 I= 1 D=  8.40D-04 Err=  3.27D-05
      PEZero:  N= 3 I= 2 D=  8.40D-04 Err=  2.18D-05
      PEZero:  N= 3 I= 1 D=  1.68D-03 Err=  2.26D-08
 Maximum DWI energy   std dev =  0.000018557 at pt    19
 Maximum DWI gradient std dev =  0.002472304 at pt    47
 CORRECTOR INTEGRATION CONVERGENCE:
   Recorrection delta-x convergence threshold:    0.010000
   Delta-x Convergence Met
 Point Number:   4          Path Number:   1
   CHANGE IN THE REACTION COORDINATE =    0.16118
   NET REACTION COORDINATE UP TO THIS POINT =    0.64473
  # OF POINTS ALONG THE PATH =   4
  # OF STEPS =   1

 Calculating another point on the path.
 IRC-IRC-IRC-IRC-IRC-IRC-IRC-IRC-IRC-IRC-IRC-IRC-IRC-IRC-IRC-IRC-IRC-IRC
                          Input orientation:                          
 ---------------------------------------------------------------------
 Center     Atomic      Atomic             Coordinates (Angstroms)
 Number     Number       Type             X           Y           Z
 ---------------------------------------------------------------------
      1          6           0        0.389553    0.038215    0.339645
      2          6           0       -0.796702    0.902791    0.097638
      3          6           0       -2.054827    0.236931   -0.139021
      4          8           0        1.498995    0.438057   -0.351406
      5          8           0        2.589025   -0.475684    0.054651
      6          8           0       -2.247497   -0.976733   -0.040894
      7          1           0        2.996051   -0.613278   -0.820509
      8          1           0        0.115282   -1.020047    0.308663
      9          1           0        0.827793    0.066066    1.493462
     10          1           0       -2.891222    0.911294   -0.410269
     11          1           0       -0.663621    1.967501   -0.057889
     12          1           0       -0.280381    0.761609    1.293919
 ---------------------------------------------------------------------
                    Distance matrix (angstroms):
                    1          2          3          4          5
     1  C    0.000000
     2  C    1.487702   0.000000
     3  C    2.498720   1.443002   0.000000
     4  O    1.366853   2.384920   3.565839   0.000000
     5  O    2.276618   3.655842   4.702200   1.479178   0.000000
     6  O    2.851134   2.378363   1.232774   4.016747   4.863345
     7  H    2.926472   4.186458   5.167074   1.888528   0.974940
     8  H    1.093665   2.138586   2.547506   2.115755   2.545635
     9  H    1.234554   2.299438   3.317181   1.998106   2.337864
    10  H    3.476798   2.155240   1.108106   4.416042   5.672122
    11  H    2.233686   1.084208   2.221916   2.665006   4.069585
    12  H    1.372133   1.310576   2.340355   2.444987   3.361573
                    6          7          8          9         10
     6  O    0.000000
     7  H    5.313633   0.000000
     8  H    2.388889   3.120789   0.000000
     9  H    3.591530   3.243041   1.758141   0.000000
    10  H    2.028661   6.095294   3.644998   4.262590   0.000000
    11  H    3.343272   4.542599   3.109098   2.871665   2.490372
    12  H    2.945014   4.134747   2.074024   1.323498   3.121403
                   11         12
    11  H    0.000000
    12  H    1.851603   0.000000
 Symmetry turned off by external request.
 Stoichiometry    C3H6O3
 Framework group  C1[X(C3H6O3)]
 Deg. of freedom    30
 Full point group                 C1      NOp   1
 Rotational constants (GHZ):          10.5907731           1.6223036           1.4779639
 Standard basis: 6-31+G(d) (6D, 7F)
   126 basis functions,   216 primitive gaussians,   126 cartesian basis functions
    24 alpha electrons       24 beta electrons
       nuclear repulsion energy       235.0567501583 Hartrees.
 NAtoms=   12 NActive=   12 NUniq=   12 SFac= 1.00D+00 NAtFMM=   60 NAOKFM=F Big=F
 Integral buffers will be    131072 words long.
 Raffenetti 2 integral format.
 Two-electron integral symmetry is turned off.
 One-electron integrals computed using PRISM.
 NBasis=   126 RedAO= T EigKep=  9.47D-05  NBF=   126
 NBsUse=   126 1.00D-06 EigRej= -1.00D+00 NBFU=   126
 Initial guess from the checkpoint file:  "/scratch/bell/zhao922/YARP/paper-example/KHP-network/pp_0/IRC-folder/Gau-38220.chk"
 B after Tr=    -0.001369    0.000342   -0.001309
         Rot=    1.000000    0.000382    0.000117   -0.000042 Ang=   0.05 deg.
 ExpMin= 4.38D-02 ExpMax= 5.48D+03 ExpMxC= 8.25D+02 IAcc=3 IRadAn=         5 AccDes= 0.00D+00
 Harris functional with IExCor=  402 and IRadAn=       5 diagonalized for initial guess.
 HarFok:  IExCor=  402 AccDes= 0.00D+00 IRadAn=         5 IDoV= 1 UseB2=F ITyADJ=14
 ICtDFT=  3500011 ScaDFX=  1.000000  1.000000  1.000000  1.000000
 FoFCou: FMM=F IPFlag=           0 FMFlag=      100000 FMFlg1=           0
         NFxFlg=           0 DoJE=T BraDBF=F KetDBF=T FulRan=T
         wScrn=  0.000000 ICntrl=       500 IOpCl=  0 I1Cent=   200000004 NGrid=           0
         NMat0=    1 NMatS0=      1 NMatT0=    0 NMatD0=    1 NMtDS0=    0 NMtDT0=    0
 Symmetry not used in FoFCou.
 Keep R1 ints in memory in canonical form, NReq=47237219.
 Requested convergence on RMS density matrix=1.00D-08 within 128 cycles.
 Requested convergence on MAX density matrix=1.00D-06.
 Requested convergence on             energy=1.00D-06.
 No special actions if energy rises.
 SCF Done:  E(RB3LYP) =  -343.378836689     A.U. after   12 cycles
            NFock= 12  Conv=0.64D-08     -V/T= 2.0089
 DoSCS=F DFT=T ScalE2(SS,OS)=  1.000000  1.000000
 Range of M.O.s used for correlation:     1   126
 NBasis=   126 NAE=    24 NBE=    24 NFC=     0 NFV=     0
 NROrb=    126 NOA=    24 NOB=    24 NVA=   102 NVB=   102

 **** Warning!!: The largest alpha MO coefficient is  0.25386480D+02

 Symmetrizing basis deriv contribution to polar:
 IMax=3 JMax=2 DiffMx= 0.00D+00
 G2DrvN: will do    13 centers at a time, making    1 passes.
 Calling FoFCou, ICntrl=  3107 FMM=F I1Cent=   0 AccDes= 0.00D+00.
 End of G2Drv F.D. properties file   721 does not exist.
 End of G2Drv F.D. properties file   722 does not exist.
 End of G2Drv F.D. properties file   788 does not exist.
          IDoAtm=111111111111
          Differentiating once with respect to nuclear coordinates.
 Keep R1 ints in memory in canonical form, NReq=47193241.
          There are    39 degrees of freedom in the 1st order CPHF.  IDoFFX=6 NUNeed=     0.
     33 vectors produced by pass  0 Test12= 6.28D-15 2.56D-09 XBig12= 1.76D-01 1.35D-01.
 AX will form    33 AO Fock derivatives at one time.
     33 vectors produced by pass  1 Test12= 6.28D-15 2.56D-09 XBig12= 3.05D-02 4.33D-02.
     33 vectors produced by pass  2 Test12= 6.28D-15 2.56D-09 XBig12= 8.08D-04 6.50D-03.
     33 vectors produced by pass  3 Test12= 6.28D-15 2.56D-09 XBig12= 3.54D-06 3.37D-04.
     33 vectors produced by pass  4 Test12= 6.28D-15 2.56D-09 XBig12= 8.36D-09 2.09D-05.
     27 vectors produced by pass  5 Test12= 6.28D-15 2.56D-09 XBig12= 9.58D-12 5.31D-07.
      4 vectors produced by pass  6 Test12= 6.28D-15 2.56D-09 XBig12= 8.50D-15 1.00D-08.
 InvSVY:  IOpt=1 It=  1 EMax= 1.78D-15
 Solved reduced A of dimension   196 with    33 vectors.
 End of Minotr F.D. properties file   721 does not exist.
 End of Minotr F.D. properties file   722 does not exist.
 End of Minotr F.D. properties file   788 does not exist.
 Calling FoFJK, ICntrl=    100127 FMM=F ISym2X=0 I1Cent= 0 IOpClX= 0 NMat=1 NMatS=1 NMatT=0.
 -------------------------------------------------------------------
 Center     Atomic                   Forces (Hartrees/Bohr)
 Number     Number              X              Y              Z
 -------------------------------------------------------------------
      1        6           0.047699437   -0.034031575    0.045889152
      2        6           0.014482937    0.009461598    0.051512502
      3        6          -0.011288523   -0.008313637   -0.001778469
      4        8           0.017861538    0.001449104   -0.029583988
      5        8          -0.002473831    0.003758774   -0.001719307
      6        8           0.001690276    0.008838050   -0.000811683
      7        1           0.000156422   -0.000371748    0.000344773
      8        1          -0.002358723   -0.001327147   -0.010762401
      9        1          -0.005560712   -0.006334819   -0.025138322
     10        1          -0.000464239   -0.000690671   -0.001156733
     11        1           0.000476403   -0.000179296   -0.006346654
     12        1          -0.060220983    0.027741366   -0.020448871
 -------------------------------------------------------------------
 Cartesian Forces:  Max     0.060220983 RMS     0.020867439
 IRC-IRC-IRC-IRC-IRC-IRC-IRC-IRC-IRC-IRC-IRC-IRC-IRC-IRC-IRC-IRC-IRC-IRC
 Pt  5 Step number   1 out of a maximum of 100
 Modified Bulirsch-Stoer Extrapolation Cycles:
    EPS =    0.000010000000000
      PEZero:  N= 2 I= 1 D=  8.40D-04 Err=  3.82D-05
      PEZero:  N= 3 I= 2 D=  8.40D-04 Err=  2.54D-05
      PEZero:  N= 3 I= 1 D=  1.68D-03 Err=  2.66D-08
 Maximum DWI energy   std dev =  0.000020349 at pt    19
 Maximum DWI gradient std dev =  0.002168279 at pt    25
 CORRECTOR INTEGRATION CONVERGENCE:
   Recorrection delta-x convergence threshold:    0.010000
   Delta-x Convergence Met
 Point Number:   5          Path Number:   1
   CHANGE IN THE REACTION COORDINATE =    0.16118
   NET REACTION COORDINATE UP TO THIS POINT =    0.80590
  # OF POINTS ALONG THE PATH =   5
  # OF STEPS =   1

 Calculating another point on the path.
 IRC-IRC-IRC-IRC-IRC-IRC-IRC-IRC-IRC-IRC-IRC-IRC-IRC-IRC-IRC-IRC-IRC-IRC
                          Input orientation:                          
 ---------------------------------------------------------------------
 Center     Atomic      Atomic             Coordinates (Angstroms)
 Number     Number       Type             X           Y           Z
 ---------------------------------------------------------------------
      1          6           0        0.393730    0.035142    0.343498
      2          6           0       -0.795305    0.903620    0.102375
      3          6           0       -2.055878    0.236160   -0.139209
      4          8           0        1.500211    0.438147   -0.353411
      5          8           0        2.588868   -0.475429    0.054532
      6          8           0       -2.247384   -0.976119   -0.040949
      7          1           0        2.996261   -0.613721   -0.820127
      8          1           0        0.113087   -1.021506    0.296917
      9          1           0        0.821446    0.060121    1.468444
     10          1           0       -2.891809    0.910514   -0.411488
     11          1           0       -0.663071    1.967204   -0.065292
     12          1           0       -0.344491    0.791199    1.273451
 ---------------------------------------------------------------------
                    Distance matrix (angstroms):
                    1          2          3          4          5
     1  C    0.000000
     2  C    1.492045   0.000000
     3  C    2.504794   1.446689   0.000000
     4  O    1.368355   2.386168   3.568256   0.000000
     5  O    2.272183   3.654681   4.702931   1.478585   0.000000
     6  O    2.854109   2.379600   1.231240   4.017742   4.863039
     7  H    2.923732   4.186801   5.168177   1.887436   0.974742
     8  H    1.094274   2.137553   2.544865   2.116041   2.546850
     9  H    1.203772   2.278490   3.300686   1.980602   2.325885
    10  H    3.482966   2.158572   1.108003   4.417731   5.672375
    11  H    2.239821   1.084808   2.223035   2.664735   4.068896
    12  H    1.407623   1.259877   2.287470   2.484804   3.419752
                    6          7          8          9         10
     6  O    0.000000
     7  H    5.313592   0.000000
     8  H    2.384961   3.118777   0.000000
     9  H    3.573483   3.228226   1.744754   0.000000
    10  H    2.027799   6.095871   3.641969   4.248009   0.000000
    11  H    3.342722   4.541107   3.109019   2.862360   2.490727
    12  H    2.910681   4.185390   2.109240   1.389930   3.056482
                   11         12
    11  H    0.000000
    12  H    1.810170   0.000000
 Symmetry turned off by external request.
 Stoichiometry    C3H6O3
 Framework group  C1[X(C3H6O3)]
 Deg. of freedom    30
 Full point group                 C1      NOp   1
 Rotational constants (GHZ):          10.5976110           1.6219552           1.4772293
 Standard basis: 6-31+G(d) (6D, 7F)
   126 basis functions,   216 primitive gaussians,   126 cartesian basis functions
    24 alpha electrons       24 beta electrons
       nuclear repulsion energy       235.1196015460 Hartrees.
 NAtoms=   12 NActive=   12 NUniq=   12 SFac= 1.00D+00 NAtFMM=   60 NAOKFM=F Big=F
 Integral buffers will be    131072 words long.
 Raffenetti 2 integral format.
 Two-electron integral symmetry is turned off.
 One-electron integrals computed using PRISM.
 NBasis=   126 RedAO= T EigKep=  9.55D-05  NBF=   126
 NBsUse=   126 1.00D-06 EigRej= -1.00D+00 NBFU=   126
 Initial guess from the checkpoint file:  "/scratch/bell/zhao922/YARP/paper-example/KHP-network/pp_0/IRC-folder/Gau-38220.chk"
 B after Tr=    -0.001403    0.000375   -0.001246
         Rot=    1.000000    0.000411    0.000125   -0.000046 Ang=   0.05 deg.
 ExpMin= 4.38D-02 ExpMax= 5.48D+03 ExpMxC= 8.25D+02 IAcc=3 IRadAn=         5 AccDes= 0.00D+00
 Harris functional with IExCor=  402 and IRadAn=       5 diagonalized for initial guess.
 HarFok:  IExCor=  402 AccDes= 0.00D+00 IRadAn=         5 IDoV= 1 UseB2=F ITyADJ=14
 ICtDFT=  3500011 ScaDFX=  1.000000  1.000000  1.000000  1.000000
 FoFCou: FMM=F IPFlag=           0 FMFlag=      100000 FMFlg1=           0
         NFxFlg=           0 DoJE=T BraDBF=F KetDBF=T FulRan=T
         wScrn=  0.000000 ICntrl=       500 IOpCl=  0 I1Cent=   200000004 NGrid=           0
         NMat0=    1 NMatS0=      1 NMatT0=    0 NMatD0=    1 NMtDS0=    0 NMtDT0=    0
 Symmetry not used in FoFCou.
 Keep R1 ints in memory in canonical form, NReq=47237219.
 Requested convergence on RMS density matrix=1.00D-08 within 128 cycles.
 Requested convergence on MAX density matrix=1.00D-06.
 Requested convergence on             energy=1.00D-06.
 No special actions if energy rises.
 SCF Done:  E(RB3LYP) =  -343.392107295     A.U. after   12 cycles
            NFock= 12  Conv=0.51D-08     -V/T= 2.0088
 DoSCS=F DFT=T ScalE2(SS,OS)=  1.000000  1.000000
 Range of M.O.s used for correlation:     1   126
 NBasis=   126 NAE=    24 NBE=    24 NFC=     0 NFV=     0
 NROrb=    126 NOA=    24 NOB=    24 NVA=   102 NVB=   102

 **** Warning!!: The largest alpha MO coefficient is  0.27677620D+02

 Symmetrizing basis deriv contribution to polar:
 IMax=3 JMax=2 DiffMx= 0.00D+00
 G2DrvN: will do    13 centers at a time, making    1 passes.
 Calling FoFCou, ICntrl=  3107 FMM=F I1Cent=   0 AccDes= 0.00D+00.
 End of G2Drv F.D. properties file   721 does not exist.
 End of G2Drv F.D. properties file   722 does not exist.
 End of G2Drv F.D. properties file   788 does not exist.
          IDoAtm=111111111111
          Differentiating once with respect to nuclear coordinates.
 Keep R1 ints in memory in canonical form, NReq=47193241.
          There are    39 degrees of freedom in the 1st order CPHF.  IDoFFX=6 NUNeed=     0.
     33 vectors produced by pass  0 Test12= 6.28D-15 2.56D-09 XBig12= 1.65D-01 1.20D-01.
 AX will form    33 AO Fock derivatives at one time.
     33 vectors produced by pass  1 Test12= 6.28D-15 2.56D-09 XBig12= 2.86D-02 5.06D-02.
     33 vectors produced by pass  2 Test12= 6.28D-15 2.56D-09 XBig12= 7.94D-04 6.58D-03.
     33 vectors produced by pass  3 Test12= 6.28D-15 2.56D-09 XBig12= 3.80D-06 4.02D-04.
     33 vectors produced by pass  4 Test12= 6.28D-15 2.56D-09 XBig12= 9.47D-09 2.17D-05.
     27 vectors produced by pass  5 Test12= 6.28D-15 2.56D-09 XBig12= 1.10D-11 5.03D-07.
      4 vectors produced by pass  6 Test12= 6.28D-15 2.56D-09 XBig12= 9.46D-15 1.09D-08.
 InvSVY:  IOpt=1 It=  1 EMax= 1.89D-15
 Solved reduced A of dimension   196 with    33 vectors.
 End of Minotr F.D. properties file   721 does not exist.
 End of Minotr F.D. properties file   722 does not exist.
 End of Minotr F.D. properties file   788 does not exist.
 Calling FoFJK, ICntrl=    100127 FMM=F ISym2X=0 I1Cent= 0 IOpClX= 0 NMat=1 NMatS=1 NMatT=0.
 -------------------------------------------------------------------
 Center     Atomic                   Forces (Hartrees/Bohr)
 Number     Number              X              Y              Z
 -------------------------------------------------------------------
      1        6           0.048567000   -0.037049014    0.042814368
      2        6           0.017562336    0.009755871    0.057539192
      3        6          -0.013010301   -0.009493930   -0.002698704
      4        8           0.019720429    0.001332199   -0.032300030
      5        8          -0.002325020    0.004136432   -0.001976628
      6        8           0.001785520    0.010080889   -0.000884548
      7        1           0.000264266   -0.000501250    0.000400397
      8        1          -0.001845135   -0.001483218   -0.012081404
      9        1          -0.006677014   -0.005148483   -0.022881872
     10        1          -0.000698608   -0.000821476   -0.001200405
     11        1           0.000606954   -0.000433874   -0.008122699
     12        1          -0.063950429    0.029625855   -0.018607667
 -------------------------------------------------------------------
 Cartesian Forces:  Max     0.063950429 RMS     0.021884125
 IRC-IRC-IRC-IRC-IRC-IRC-IRC-IRC-IRC-IRC-IRC-IRC-IRC-IRC-IRC-IRC-IRC-IRC
 Pt  6 Step number   1 out of a maximum of 100
 Modified Bulirsch-Stoer Extrapolation Cycles:
    EPS =    0.000010000000000
      PEZero:  N= 2 I= 1 D=  8.40D-04 Err=  4.39D-05
      PEZero:  N= 3 I= 2 D=  8.40D-04 Err=  2.92D-05
      PEZero:  N= 3 I= 1 D=  1.68D-03 Err=  3.98D-08
 Maximum DWI energy   std dev =  0.000020422 at pt    29
 Maximum DWI gradient std dev =  0.002342155 at pt    17
 CORRECTOR INTEGRATION CONVERGENCE:
   Recorrection delta-x convergence threshold:    0.010000
   Delta-x Convergence Met
 Point Number:   6          Path Number:   1
   CHANGE IN THE REACTION COORDINATE =    0.16117
   NET REACTION COORDINATE UP TO THIS POINT =    0.96707
  # OF POINTS ALONG THE PATH =   6
  # OF STEPS =   1

 Calculating another point on the path.
 IRC-IRC-IRC-IRC-IRC-IRC-IRC-IRC-IRC-IRC-IRC-IRC-IRC-IRC-IRC-IRC-IRC-IRC
                          Input orientation:                          
 ---------------------------------------------------------------------
 Center     Atomic      Atomic             Coordinates (Angstroms)
 Number     Number       Type             X           Y           Z
 ---------------------------------------------------------------------
      1          6           0        0.397812    0.031921    0.346938
      2          6           0       -0.793718    0.904451    0.107438
      3          6           0       -2.057042    0.235320   -0.139486
      4          8           0        1.501513    0.438224   -0.355527
      5          8           0        2.588728   -0.475155    0.054396
      6          8           0       -2.247270   -0.975448   -0.041007
      7          1           0        2.996595   -0.614299   -0.819698
      8          1           0        0.111585   -1.023077    0.284211
      9          1           0        0.814239    0.055615    1.447004
     10          1           0       -2.892642    0.909624   -0.412694
     11          1           0       -0.662374    1.966605   -0.074395
     12          1           0       -0.409866    0.821592    1.256185
 ---------------------------------------------------------------------
                    Distance matrix (angstroms):
                    1          2          3          4          5
     1  C    0.000000
     2  C    1.496131   0.000000
     3  C    2.510833   1.450757   0.000000
     4  O    1.369925   2.387422   3.570875   0.000000
     5  O    2.267779   3.653364   4.703780   1.477950   0.000000
     6  O    2.856877   2.380939   1.229570   4.018801   4.862743
     7  H    2.921013   4.187201   5.169505   1.886407   0.974555
     8  H    1.094934   2.136863   2.542838   2.115789   2.547405
     9  H    1.176485   2.258424   3.285345   1.966686   2.317301
    10  H    3.489196   2.162418   1.107952   4.419738   5.672849
    11  H    2.246000   1.085581   2.224114   2.664092   4.067978
    12  H    1.450052   1.214013   2.237141   2.529418   3.481008
                    6          7          8          9         10
     6  O    0.000000
     7  H    5.313653   0.000000
     8  H    2.381645   3.115926   0.000000
     9  H    3.556697   3.217048   1.734757   0.000000
    10  H    2.026858   6.096812   3.639559   4.234238   0.000000
    11  H    3.341958   4.539229   3.108989   2.854282   2.491135
    12  H    2.878908   4.239699   2.149290   1.456559   2.992839
                   11         12
    11  H    0.000000
    12  H    1.773489   0.000000
 Symmetry turned off by external request.
 Stoichiometry    C3H6O3
 Framework group  C1[X(C3H6O3)]
 Deg. of freedom    30
 Full point group                 C1      NOp   1
 Rotational constants (GHZ):          10.5999173           1.6214117           1.4764218
 Standard basis: 6-31+G(d) (6D, 7F)
   126 basis functions,   216 primitive gaussians,   126 cartesian basis functions
    24 alpha electrons       24 beta electrons
       nuclear repulsion energy       235.1572485926 Hartrees.
 NAtoms=   12 NActive=   12 NUniq=   12 SFac= 1.00D+00 NAtFMM=   60 NAOKFM=F Big=F
 Integral buffers will be    131072 words long.
 Raffenetti 2 integral format.
 Two-electron integral symmetry is turned off.
 One-electron integrals computed using PRISM.
 NBasis=   126 RedAO= T EigKep=  9.61D-05  NBF=   126
 NBsUse=   126 1.00D-06 EigRej= -1.00D+00 NBFU=   126
 Initial guess from the checkpoint file:  "/scratch/bell/zhao922/YARP/paper-example/KHP-network/pp_0/IRC-folder/Gau-38220.chk"
 B after Tr=    -0.001430    0.000405   -0.001162
         Rot=    1.000000    0.000437    0.000133   -0.000050 Ang=   0.05 deg.
 ExpMin= 4.38D-02 ExpMax= 5.48D+03 ExpMxC= 8.25D+02 IAcc=3 IRadAn=         5 AccDes= 0.00D+00
 Harris functional with IExCor=  402 and IRadAn=       5 diagonalized for initial guess.
 HarFok:  IExCor=  402 AccDes= 0.00D+00 IRadAn=         5 IDoV= 1 UseB2=F ITyADJ=14
 ICtDFT=  3500011 ScaDFX=  1.000000  1.000000  1.000000  1.000000
 FoFCou: FMM=F IPFlag=           0 FMFlag=      100000 FMFlg1=           0
         NFxFlg=           0 DoJE=T BraDBF=F KetDBF=T FulRan=T
         wScrn=  0.000000 ICntrl=       500 IOpCl=  0 I1Cent=   200000004 NGrid=           0
         NMat0=    1 NMatS0=      1 NMatT0=    0 NMatD0=    1 NMtDS0=    0 NMtDT0=    0
 Symmetry not used in FoFCou.
 Keep R1 ints in memory in canonical form, NReq=47237219.
 Requested convergence on RMS density matrix=1.00D-08 within 128 cycles.
 Requested convergence on MAX density matrix=1.00D-06.
 Requested convergence on             energy=1.00D-06.
 No special actions if energy rises.
 SCF Done:  E(RB3LYP) =  -343.405521814     A.U. after   12 cycles
            NFock= 12  Conv=0.40D-08     -V/T= 2.0087
 DoSCS=F DFT=T ScalE2(SS,OS)=  1.000000  1.000000
 Range of M.O.s used for correlation:     1   126
 NBasis=   126 NAE=    24 NBE=    24 NFC=     0 NFV=     0
 NROrb=    126 NOA=    24 NOB=    24 NVA=   102 NVB=   102

 **** Warning!!: The largest alpha MO coefficient is  0.29289217D+02

 Symmetrizing basis deriv contribution to polar:
 IMax=3 JMax=2 DiffMx= 0.00D+00
[...]
  10                    0.93758  -0.14046  -0.65864   1.91293  -0.19937
  11                    0.93566  -0.16078  -0.65682   1.91416  -0.19914
  12                    0.93370  -0.18126  -0.65506   1.91544  -0.19881
  13                    0.93168  -0.20171  -0.65344   1.91678  -0.19834
  14                    0.92961  -0.22196  -0.65202   1.91822  -0.19766
  15                    0.92749  -0.24184  -0.65087   1.91979  -0.19670
  16                    0.92534  -0.26116  -0.65005   1.92151  -0.19532
  17                    0.92319  -0.27974  -0.64959   1.92340  -0.19332
  18                    0.92109  -0.29735  -0.64955   1.92551  -0.19046
  19                    0.91909  -0.31379  -0.64996   1.92783  -0.18645
  20                    0.91726  -0.32884  -0.65081   1.93037  -0.18105
  21                    0.91564  -0.34233  -0.65210   1.93311  -0.17408
  22                    0.91428  -0.35413  -0.65381   1.93598  -0.16550
  23                    0.91321  -0.36420  -0.65587   1.93889  -0.15548
  24                    0.91244  -0.37257  -0.65819   1.94175  -0.14430
  25                    0.91193  -0.37935  -0.66066   1.94448  -0.13238
  26                    0.91165  -0.38472  -0.66315   1.94701  -0.12018
  27                    0.91156  -0.38886  -0.66553   1.94934  -0.10813
  28                    0.91161  -0.39200  -0.66766   1.95149  -0.09659
  29                    0.91177  -0.39434  -0.66945   1.95347  -0.08587
  30                    0.91201  -0.39605  -0.67081   1.95533  -0.07614
  31                    0.91230  -0.39731  -0.67172   1.95707  -0.06753
  32                    0.91262  -0.39825  -0.67216   1.95871  -0.06007
  33                    0.91295  -0.39897  -0.67218   1.96023  -0.05375
  34                    0.91328  -0.39957  -0.67183   1.96163  -0.04853
  35                    0.91357  -0.40012  -0.67119   1.96288  -0.04435
  36                    0.91383  -0.40068  -0.67035   1.96398  -0.04115
  37                    0.91401  -0.40129  -0.66939   1.96490  -0.03891
  38                    0.91411  -0.40197  -0.66842   1.96564  -0.03757
  39                    0.91411  -0.40275  -0.66752   1.96621  -0.03712
  40                    0.91399  -0.40362  -0.66672   1.96664  -0.03751
  41                    0.91376  -0.40458  -0.66605   1.96695  -0.03885
  42                    0.91346  -0.40560  -0.66547   1.96723  -0.04064
  43                    0.91306  -0.40671  -0.66498   1.96744  -0.04342
  44                    0.91256  -0.40787  -0.66453   1.96757  -0.04716
  45                    0.91197  -0.40906  -0.66409   1.96760  -0.05196
  46                    0.91129  -0.41027  -0.66362   1.96750  -0.05795
  47                    0.91051  -0.41149  -0.66307   1.96719  -0.06535
  48                    0.90962  -0.41269  -0.66237   1.96659  -0.07445
  49                    0.90861  -0.41386  -0.66143   1.96552  -0.08559
  50                    0.90748  -0.41493  -0.66012   1.96375  -0.09907
  51                    0.90627  -0.41586  -0.65832   1.96101  -0.11504
  52                    0.90501  -0.41659  -0.65586   1.95700  -0.13350
  53                    0.90376  -0.41713  -0.65258   1.95137  -0.15445
  54                    0.90257  -0.41754  -0.64827   1.94374  -0.17800
  55                    0.90147  -0.41798  -0.64275   1.93365  -0.20429
  56                    0.90046  -0.41875  -0.63585   1.92058  -0.23348
  57                    0.89950  -0.42036  -0.62752   1.90403  -0.26560
  58                    0.89850  -0.42360  -0.61790   1.88362  -0.30043
  59                    0.89732  -0.42949  -0.60746   1.85933  -0.33735
  60                    0.89581  -0.43896  -0.59692   1.83168  -0.37536
  61                    0.89401  -0.45219  -0.58698   1.80168  -0.41339
  62                    0.89230  -0.46764  -0.57793   1.77059  -0.45058
  63                    0.89148  -0.48148  -0.56941   1.73977  -0.48613
  64                    0.89242  -0.48868  -0.56076   1.71072  -0.51903
  65                    0.89532  -0.48697  -0.55180   1.68434  -0.54856
  66                    0.89956  -0.47807  -0.54301   1.66018  -0.57527
  67                    0.90446  -0.46456  -0.53501   1.63712  -0.60034
  68                    0.90958  -0.44796  -0.52827   1.61443  -0.62462
  69                    0.91468  -0.42888  -0.52315   1.59188  -0.64844
  70                    0.91956  -0.40750  -0.51987   1.56968  -0.67178
  71                    0.92408  -0.38394  -0.51853   1.54819  -0.69449
  72                    0.92812  -0.35849  -0.51906   1.52778  -0.71643
  73                    0.93164  -0.33167  -0.52125   1.50874  -0.73752
  74                    0.93466  -0.30428  -0.52475   1.49128  -0.75761
  75                    0.93728  -0.27740  -0.52915   1.47558  -0.77650
  76                    0.93961  -0.25200  -0.53406   1.46170  -0.79400
  77                    0.94180  -0.22863  -0.53916   1.44955  -0.81005
  78                    0.94392  -0.20744  -0.54428   1.43893  -0.82476
  79                    0.94605  -0.18835  -0.54933   1.42965  -0.83827
  80                    0.94822  -0.17116  -0.55427   1.42153  -0.85072
  81                    0.95044  -0.15570  -0.55909   1.41444  -0.86226
                          X12       Y12       Z12
   1                    0.70753   0.53464   3.08432
   2                    0.70077   0.53912   3.02706
   3                    0.69410   0.54278   2.97632
   4                    0.68749   0.54579   2.93143
   5                    0.68089   0.54835   2.89129
   6                    0.67424   0.55059   2.85473
   7                    0.66747   0.55260   2.82073
   8                    0.66052   0.55440   2.78841
   9                    0.65332   0.55605   2.75712
  10                    0.64583   0.55756   2.72638
  11                    0.63798   0.55895   2.69579
  12                    0.62970   0.56023   2.66501
  13                    0.62096   0.56138   2.63369
  14                    0.61170   0.56238   2.60153
  15                    0.60188   0.56321   2.56829
  16                    0.59144   0.56386   2.53379
  17                    0.58036   0.56430   2.49785
  18                    0.56861   0.56450   2.46033
  19                    0.55618   0.56444   2.42115
  20                    0.54306   0.56409   2.38030
  21                    0.52929   0.56344   2.33783
  22                    0.51490   0.56250   2.29387
  23                    0.49992   0.56129   2.24862
  24                    0.48441   0.55985   2.20232
  25                    0.46838   0.55823   2.15520
  26                    0.45184   0.55649   2.10747
  27                    0.43476   0.55472   2.05935
  28                    0.41711   0.55299   2.01101
  29                    0.39881   0.55140   1.96263
  30                    0.37977   0.55005   1.91437
  31                    0.35985   0.54907   1.86635
  32                    0.33889   0.54857   1.81867
  33                    0.31663   0.54874   1.77139
  34                    0.29270   0.54980   1.72454
  35                    0.26656   0.55210   1.67811
  36                    0.23734   0.55619   1.63213
  37                    0.20384   0.56294   1.58675
  38                    0.16490   0.57331   1.54257
  39                    0.12021   0.58784   1.50070
  40                    0.07058   0.60631   1.46220
  41                    0.01686   0.62828   1.42790
  42                   -0.03862   0.65196   1.39605
  43                   -0.09659   0.67772   1.36753
  44                   -0.15636   0.70479   1.34122
  45                   -0.21769   0.73282   1.31673
  46                   -0.28044   0.76165   1.29404
  47                   -0.34454   0.79124   1.27362
  48                   -0.40991   0.82164   1.25641
  49                   -0.47632   0.85296   1.24376
  50                   -0.54324   0.88526   1.23675
  51                   -0.60982   0.91848   1.23525
  52                   -0.67516   0.95258   1.23752
  53                   -0.73852   0.98760   1.24111
  54                   -0.79909   1.02375   1.24390
  55                   -0.85581   1.06132   1.24461
  56                   -0.90724   1.10071   1.24275
  57                   -0.95157   1.14232   1.23843
  58                   -0.98678   1.18644   1.23206
  59                   -1.01112   1.23305   1.22412
  60                   -1.02388   1.28159   1.21474
  61                   -1.02585   1.33090   1.20358
  62                   -1.01930   1.37919   1.18995
  63                   -1.00743   1.42398   1.17331
  64                   -0.99374   1.46241   1.15400
  65                   -0.98079   1.49321   1.13324
  66                   -0.96914   1.51794   1.11202
  67                   -0.95827   1.53906   1.09059
  68                   -0.94761   1.55818   1.06892
  69                   -0.93691   1.57599   1.04707
  70                   -0.92609   1.59257   1.02528
  71                   -0.91515   1.60777   1.00383
  72                   -0.90404   1.62148   0.98301
  73                   -0.89274   1.63360   0.96304
  74                   -0.88127   1.64408   0.94409
  75                   -0.86979   1.65286   0.92640
  76                   -0.85850   1.65995   0.91014
  77                   -0.84756   1.66547   0.89533
  78                   -0.83703   1.66961   0.88186
  79                   -0.82690   1.67257   0.86958
  80                   -0.81715   1.67451   0.85837
  81                   -0.80775   1.67558   0.84809
 --------------------------------------------------------------------------
 
 Total number of points:                   80
 Total number of gradient calculations:    81
 Total number of Hessian calculations:     81
 IRC-IRC-IRC-IRC-IRC-IRC-IRC-IRC-IRC-IRC-IRC-IRC-IRC-IRC-IRC-IRC-IRC-IRC
                          Input orientation:                          
 ---------------------------------------------------------------------
 Center     Atomic      Atomic             Coordinates (Angstroms)
 Number     Number       Type             X           Y           Z
 ---------------------------------------------------------------------
      1          6           0        0.328385    0.023655   -0.093725
      2          6           0       -0.758318    0.820325   -0.124495
      3          6           0       -2.095743    0.223516   -0.045585
      4          8           0        1.569830    0.538983   -0.218146
      5          8           0        2.538935   -0.506996    0.077851
      6          8           0       -2.335304   -0.975731   -0.000958
      7          1           0        3.126147   -0.409815   -0.696427
      8          1           0        0.275037   -1.055286    0.016973
      9          1           0        1.415156    0.343240    3.206408
     10          1           0       -2.930277    0.954397   -0.024959
     11          1           0       -0.666897    1.899976   -0.203261
     12          1           0        0.707523    0.534916    3.084122
 ---------------------------------------------------------------------
                    Distance matrix (angstroms):
                    1          2          3          4          5
     1  C    0.000000
     2  C    1.347796   0.000000
     3  C    2.432829   1.466667   0.000000
     4  O    1.349900   2.346955   3.683167   0.000000
     5  O    2.279816   3.560142   4.693520   1.456315   0.000000
     6  O    2.846510   2.393317   1.223754   4.194235   4.897360
     7  H    2.894584   4.114538   5.300268   1.884435   0.976611
     8  H    1.085916   2.146102   2.694410   2.067235   2.330142
     9  H    3.489138   4.005810   4.787088   3.433629   3.431275
    10  H    3.389674   2.178368   1.109531   4.523367   5.662025
    11  H    2.126773   1.086374   2.208389   2.618295   4.018694
    12  H    3.240964   3.539120   4.213115   3.412999   3.671146
                    6          7          8          9         10
     6  O    0.000000
     7  H    5.534563   0.000000
     8  H    2.611615   3.009053   0.000000
     9  H    5.108115   4.327436   3.664457   0.000000
    10  H    2.019892   6.244375   3.783467   5.449590   0.000000
    11  H    3.330796   4.468280   3.109552   4.287682   2.459431
    12  H    4.588962   4.586372   3.481837   0.743262   4.803742
                   11         12
    11  H    0.000000
    12  H    3.815666   0.000000
 Symmetry turned off by external request.
 Stoichiometry    C3H6O3
 Framework group  C1[X(C3H6O3)]
 Deg. of freedom    30
 Full point group                 C1      NOp   1
 Rotational constants (GHZ):           8.4202217           1.5120758           1.4385438

 **********************************************************************

            Population analysis using the SCF Density.

 **********************************************************************

 Alpha  occ. eigenvalues --  -19.28249 -19.26124 -19.15097 -10.29037 -10.28378
 Alpha  occ. eigenvalues --  -10.21017  -1.18513  -1.04362  -0.98586  -0.79453
 Alpha  occ. eigenvalues --   -0.66409  -0.59782  -0.57391  -0.53300  -0.48876
 Alpha  occ. eigenvalues --   -0.47059  -0.44415  -0.43110  -0.41785  -0.40430
 Alpha  occ. eigenvalues --   -0.39346  -0.34738  -0.26519  -0.26338
 Alpha virt. eigenvalues --   -0.07319  -0.04631  -0.00243   0.01242   0.03716
 Alpha virt. eigenvalues --    0.04417   0.05179   0.06020   0.06593   0.08027
 Alpha virt. eigenvalues --    0.10453   0.10557   0.11311   0.12656   0.13831
 Alpha virt. eigenvalues --    0.15123   0.17107   0.18042   0.19338   0.21182
 Alpha virt. eigenvalues --    0.21967   0.22362   0.23701   0.24444   0.25264
 Alpha virt. eigenvalues --    0.26228   0.27541   0.28949   0.30635   0.31820
 Alpha virt. eigenvalues --    0.32912   0.34577   0.36530   0.39858   0.41516
 Alpha virt. eigenvalues --    0.52390   0.64353   0.65839   0.68349   0.69211
 Alpha virt. eigenvalues --    0.71467   0.74572   0.78601   0.82627   0.87008
 Alpha virt. eigenvalues --    0.89784   0.93427   0.96200   1.01464   1.06968
 Alpha virt. eigenvalues --    1.08234   1.10180   1.11306   1.15129   1.17466
 Alpha virt. eigenvalues --    1.19146   1.21837   1.24215   1.25642   1.27542
 Alpha virt. eigenvalues --    1.28644   1.32811   1.33354   1.34817   1.36611
 Alpha virt. eigenvalues --    1.45226   1.51296   1.52932   1.59406   1.62642
 Alpha virt. eigenvalues --    1.64740   1.72493   1.75415   1.80631   1.82005
 Alpha virt. eigenvalues --    1.82652   1.88592   1.93390   2.01797   2.06470
 Alpha virt. eigenvalues --    2.10277   2.13427   2.23696   2.31062   2.32081
 Alpha virt. eigenvalues --    2.38825   2.41719   2.51328   2.56365   2.62376
 Alpha virt. eigenvalues --    2.62555   2.90635   2.92157   3.02449   3.09443
 Alpha virt. eigenvalues --    3.21013   3.93058   4.13057   4.21510   4.29851
 Alpha virt. eigenvalues --    4.36780   4.48033
          Condensed to atoms (all electrons):
               1          2          3          4          5          6
     1  C    5.296197   0.046055   0.082611   0.232174   0.041925   0.077069
     2  C    0.046055   6.503315  -0.251760  -0.155900  -0.026384  -0.248587
     3  C    0.082611  -0.251760   5.208076   0.039625  -0.007863   0.464627
     4  O    0.232174  -0.155900   0.039625   7.961806   0.082847   0.003017
     5  O    0.041925  -0.026384  -0.007863   0.082847   8.202824  -0.000758
     6  O    0.077069  -0.248587   0.464627   0.003017  -0.000758   8.184119
     7  H    0.001533   0.005192   0.000106  -0.027062   0.191403   0.000006
     8  H    0.393490  -0.058911  -0.001743  -0.046264  -0.000187   0.004491
     9  H    0.004516  -0.001030   0.002649   0.000617  -0.001334  -0.000023
    10  H    0.049241  -0.229703   0.459676  -0.000218   0.000009  -0.063821
    11  H    0.016288   0.275244   0.003428  -0.002233   0.000164   0.005275
    12  H    0.005186  -0.000764   0.004823  -0.000243  -0.001356  -0.000132
               7          8          9         10         11         12
     1  C    0.001533   0.393490   0.004516   0.049241   0.016288   0.005186
     2  C    0.005192  -0.058911  -0.001030  -0.229703   0.275244  -0.000764
     3  C    0.000106  -0.001743   0.002649   0.459676   0.003428   0.004823
     4  O   -0.027062  -0.046264   0.000617  -0.000218  -0.002233  -0.000243
     5  O    0.191403  -0.000187  -0.001334   0.000009   0.000164  -0.001356
     6  O    0.000006   0.004491  -0.000023  -0.063821   0.005275  -0.000132
     7  H    0.352822   0.000348   0.000007  -0.000000   0.000003   0.000009
     8  H    0.000348   0.450428  -0.000097   0.000114   0.003431  -0.000130
     9  H    0.000007  -0.000097   0.592962  -0.000000  -0.000020   0.394998
    10  H   -0.000000   0.000114  -0.000000   0.628028   0.000078  -0.000001
    11  H    0.000003   0.003431  -0.000020   0.000078   0.499405  -0.000026
    12  H    0.000009  -0.000130   0.394998  -0.000001  -0.000026   0.588565
 Mulliken charges:
               1
     1  C   -0.246285
     2  C    0.143233
     3  C   -0.004254
     4  O   -0.088166
     5  O   -0.481290
     6  O   -0.425284
     7  H    0.475632
     8  H    0.255029
     9  H    0.006755
    10  H    0.156597
    11  H    0.198963
    12  H    0.009071
 Sum of Mulliken charges =  -0.00000
 Mulliken charges with hydrogens summed into heavy atoms:
               1
     1  C    0.017815
     2  C    0.342196
     3  C    0.152343
     4  O   -0.088166
     5  O    0.001097
     6  O   -0.425284
 APT charges:
               1
     1  C   -0.609654
     2  C   -0.043555
     3  C   -0.457463
     4  O   -0.015333
     5  O   -0.797221
     6  O   -0.330349
     7  H    0.802394
     8  H    0.402229
     9  H    0.361172
    10  H    0.555233
    11  H    0.473287
    12  H   -0.340742
 Sum of APT charges =   0.00000
 APT charges with hydrogens summed into heavy atoms:
               1
     1  C   -0.548166
     2  C    0.429732
     3  C    0.097771
     4  O   -0.015333
     5  O    0.366345
     6  O   -0.330349
 Electronic spatial extent (au):  <R**2>=            831.9321
 Charge=              0.0000 electrons
 Dipole moment (field-independent basis, Debye):
    X=              2.8124    Y=              1.8212    Z=             -1.3352  Tot=              3.6068
 Quadrupole moment (field-independent basis, Debye-Ang):
   XX=            -34.8637   YY=            -37.9320   ZZ=            -36.5573
   XY=             -7.7556   XZ=             -4.3685   YZ=              0.5273
 Traceless Quadrupole moment (field-independent basis, Debye-Ang):
   XX=              1.5873   YY=             -1.4810   ZZ=             -0.1063
   XY=             -7.7556   XZ=             -4.3685   YZ=              0.5273
 Octapole moment (field-independent basis, Debye-Ang**2):
  XXX=             47.5692  YYY=             -1.7100  ZZZ=            -10.2008  XYY=              5.6492
  XXY=              9.2404  XXZ=            -18.2805  XZZ=              6.2707  YZZ=             -3.5218
  YYZ=             -4.1397  XYZ=              1.9116
 Hexadecapole moment (field-independent basis, Debye-Ang**3):
 XXXX=           -671.7870 YYYY=           -133.1677 ZZZZ=           -154.8815 XXXY=            -59.7011
 XXXZ=            -63.9548 YYYX=            -13.4376 YYYZ=             -4.3514 ZZZX=            -17.7102
 ZZZY=             -2.3492 XXYY=           -162.2188 XXZZ=           -138.7330 YYZZ=            -50.5076
 XXYZ=              5.2660 YYXZ=             -6.4018 ZZXY=             -3.0442
 N-N= 2.276544528702D+02 E-N=-1.259359287764D+03  KE= 3.403141672464D+02
  Exact polarizability:   0.000   0.000   0.000   0.000   0.000   0.000
 Approx polarizability: 124.885  -8.007  77.889  -0.497  -3.182  43.522

 This type of calculation cannot be archived.


0EVERYBODY IS IGNORANT, ONLY ON DIFFERENT SUBJECTS.
0          WILL ROGERS
 Job cpu time:       0 days  5 hours 39 minutes  4.3 seconds.
 Elapsed time:       0 days  0 hours 21 minutes 45.3 seconds.
 File lengths (MBytes):  RWF=     28 Int=      0 D2E=      0 Chk=      4 Scr=      1
 Normal termination of Gaussian 16 at Wed Dec 23 22:38:44 2020.
