 Entering Gaussian System, Link 0=g16
 Initial command:
 /apps/cent7/gaussian/g16-B.01/g16-haswell/g16/l1.exe "/scratch/bell/zhao922/YARP/paper-example/KHP-network/pp_0/IRC-folder/Gau-70938.inp" -scrdir="/scratch/bell/zhao922/YARP/paper-example/KHP-network/pp_0/IRC-folder/"
 Entering Link 1 = /apps/cent7/gaussian/g16-B.01/g16-haswell/g16/l1.exe PID=     70939.
  
 Copyright (c) 1988-2017, Gaussian, Inc.  All Rights Reserved.
  
 This is part of the Gaussian(R) 16 program.  It is based on
 the Gaussian(R) 09 system (copyright 2009, Gaussian, Inc.),
 the Gaussian(R) 03 system (copyright 2003, Gaussian, Inc.),
 the Gaussian(R) 98 system (copyright 1998, Gaussian, Inc.),
 the Gaussian(R) 94 system (copyright 1995, Gaussian, Inc.),
 the Gaussian 92(TM) system (copyright 1992, Gaussian, Inc.),
 the Gaussian 90(TM) system (copyright 1990, Gaussian, Inc.),
 the Gaussian 88(TM) system (copyright 1988, Gaussian, Inc.),
 the Gaussian 86(TM) system (copyright 1986, Carnegie Mellon
 University), and the Gaussian 82(TM) system (copyright 1983,
 Carnegie Mellon University). Gaussian is a federally registered
 trademark of Gaussian, Inc.
  
 This software contains proprietary and confidential information,
 including trade secrets, belonging to Gaussian, Inc.
  
 This software is provided under written license and may be
 used, copied, transmitted, or stored only in accord with that
 written license.
  
 The following legend is applicable only to US Government
 contracts under FAR:
  
                    RESTRICTED RIGHTS LEGEND
  
 Use, reproduction and disclosure by the US Government is
 subject to restrictions as set forth in subparagraphs (a)
 and (c) of the Commercial Computer Software - Restricted
 Rights clause in FAR 52.227-19.
  
 Gaussian, Inc.
 340 Quinnipiac St., Bldg. 40, Wallingford CT 06492
  
  
 ---------------------------------------------------------------
 Warning -- This program may not be used in any manner that
 competes with the business of Gaussian, Inc. or will provide
 assistance to any competitor of Gaussian, Inc.  The licensee
 of this program is prohibited from giving any competitor of
 Gaussian, Inc. access to this program.  By using this program,
 the user acknowledges that Gaussian, Inc. is engaged in the
 business of creating and licensing software in the field of
 computational chemistry and represents and warrants to the
 licensee that it is not a competitor of Gaussian, Inc. and that
 it will not use this program in any manner prohibited above.
 ---------------------------------------------------------------
  

 Cite this work as:
 Gaussian 16, Revision B.01,
 M. J. Frisch, G. W. Trucks, H. B. Schlegel, G. E. Scuseria, 
 M. A. Robb, J. R. Cheeseman, G. Scalmani, V. Barone, 
 G. A. Petersson, H. Nakatsuji, X. Li, M. Caricato, A. V. Marenich, 
 J. Bloino, B. G. Janesko, R. Gomperts, B. Mennucci, H. P. Hratchian, 
 J. V. Ortiz, A. F. Izmaylov, J. L. Sonnenberg, D. Williams-Young, 
 F. Ding, F. Lipparini, F. Egidi, J. Goings, B. Peng, A. Petrone, 
 T. Henderson, D. Ranasinghe, V. G. Zakrzewski, J. Gao, N. Rega, 
 G. Zheng, W. Liang, M. Hada, M. Ehara, K. Toyota, R. Fukuda, 
 J. Hasegawa, M. Ishida, T. Nakajima, Y. Honda, O. Kitao, H. Nakai, 
 T. Vreven, K. Throssell, J. A. Montgomery, Jr., J. E. Peralta, 
 F. Ogliaro, M. J. Bearpark, J. J. Heyd, E. N. Brothers, K. N. Kudin, 
 V. N. Staroverov, T. A. Keith, R. Kobayashi, J. Normand, 
 K. Raghavachari, A. P. Rendell, J. C. Burant, S. S. Iyengar, 
 J. Tomasi, M. Cossi, J. M. Millam, M. Klene, C. Adamo, R. Cammi, 
 J. W. Ochterski, R. L. Martin, K. Morokuma, O. Farkas, 
 J. B. Foresman, and D. J. Fox, Gaussian, Inc., Wallingford CT, 2016.
 
 ******************************************
 Gaussian 16:  ES64L-G16RevB.01 20-Dec-2017
                23-Dec-2020 
 ******************************************
 %NProcShared=16
 Will use up to   16 processors via shared memory.
 %Mem=6GB
 ----------------------------------------------------------------------
 # B3LYP/6-31+G* IRC=(CALCALL, maxpoints=40, StepSize=15, maxcyc=100, R
 eport=Cartesians)
 ----------------------------------------------------------------------
 1/6=100,10=4,18=10,26=3,38=1,39=15,42=40,44=3,71=1,129=10,172=1/1,23;
 2/12=2,17=6,18=5,29=1,40=1/2;
 3/5=1,6=6,7=11,11=2,25=1,30=1,71=2,74=-5,140=1/1,2,3;
 4//1;
 5/5=2,38=5/2;
 8/6=4,10=90,11=11/1;
 11/6=1,8=1,9=11,15=111,16=1/1,2,10;
 10/6=1,13=1/2;
 6/7=2,8=2,9=2,10=2,18=1,28=1/1;
 7/10=1,25=1/1,2,3,16;
 1/6=100,10=4,18=10,26=3,39=15,42=40,44=3,71=1,129=10/23(2);
 2/29=1/2;
 99/5=20/99;
 2/29=1/2;
 3/5=1,6=6,7=11,11=2,25=1,30=1,71=2,74=-5,140=1/1,2,3;
 4/5=5,16=3,69=1/1;
 5/5=2,38=5/2;
 8/6=4,10=90,11=11/1;
 11/6=1,8=1,9=11,15=111,16=1/1,2,10;
 10/6=1,13=1/2;
 7/10=1,25=1/1,2,3,16;
 1/6=100,10=4,18=10,26=3,39=15,42=40,44=3,71=1,129=10/23(-8);
 2/29=1/2;
 6/7=2,8=2,9=2,10=2,18=1,19=2,28=1/1;
 99/5=20/99;
 -----------
 pp_15_1 IRC
 -----------
 Symbolic Z-matrix:
 Charge =  0 Multiplicity = 1
 C                     0.33438  -0.49847  -0.86386 
 C                    -0.65194  -1.08259   0.10153 
 C                    -1.76162  -0.10093   0.4439 
 O                     1.00431   0.58632  -0.48796 
 O                     2.34056   0.04969   0.71296 
 O                    -1.77264   1.04054   0.02373 
 H                     3.00722   0.73584   0.52967 
 H                     0.77631  -1.12548  -1.64137 
 H                    -0.09813   0.87577  -0.84192 
 H                    -2.57112  -0.46375   1.10264 
 H                    -0.12624  -1.3253    1.04198 
 H                    -1.09076  -2.01748  -0.27017 
 
 IRC-IRC-IRC-IRC-IRC-IRC-IRC-IRC-IRC-IRC-IRC-IRC-IRC-IRC-IRC-IRC-IRC-IRC
 ------------------------------------------------------------------------
 INPUT DATA FOR L123
 ------------------------------------------------------------------------
 GENERAL PARAMETERS:
 Follow reaction path in both directions.
 Maximum points per path      =  40
 Step size                    =   0.150 bohr
 Integration scheme           = HPC                                 
    Redo corrector integration= Yes                                 
    DWI Weight Power          =  2
    DWI will use Hessian update vectors when possible.
    Max correction cycles     = 100
 Initial Hessian              = CalcFC
 Hessian evaluation           = Analytic at all predictor steps
                              = Update at all corrector steps
 Hessian updating method      = Bofill                              
 ------------------------------------------------------------------------
 IRC-IRC-IRC-IRC-IRC-IRC-IRC-IRC-IRC-IRC-IRC-IRC-IRC-IRC-IRC-IRC-IRC-IRC
                          Input orientation:                          
 ---------------------------------------------------------------------
 Center     Atomic      Atomic             Coordinates (Angstroms)
 Number     Number       Type             X           Y           Z
 ---------------------------------------------------------------------
      1          6           0        0.334376   -0.498471   -0.863855
      2          6           0       -0.651942   -1.082593    0.101527
      3          6           0       -1.761616   -0.100932    0.443895
      4          8           0        1.004312    0.586318   -0.487964
      5          8           0        2.340557    0.049688    0.712957
      6          8           0       -1.772641    1.040542    0.023728
      7          1           0        3.007220    0.735840    0.529674
      8          1           0        0.776306   -1.125484   -1.641371
      9          1           0       -0.098131    0.875769   -0.841918
     10          1           0       -2.571119   -0.463751    1.102640
     11          1           0       -0.126239   -1.325298    1.041983
     12          1           0       -1.090764   -2.017484   -0.270172
 ---------------------------------------------------------------------
                    Distance matrix (angstroms):
                    1          2          3          4          5
     1  C    0.000000
     2  C    1.498661   0.000000
     3  C    2.502285   1.520609   0.000000
     4  O    1.329239   2.424034   2.998505   0.000000
     5  O    2.609900   3.257446   4.113746   1.875029   0.000000
     6  O    2.756063   2.402024   1.216398   2.860003   4.286633
     7  H    3.257229   4.108464   4.842452   2.251574   0.974083
     8  H    1.092236   2.253758   3.440798   2.076680   3.061171
     9  H    1.440861   2.243207   2.318284   1.193502   3.007864
    10  H    3.508591   2.251318   1.104933   4.051712   4.953790
    11  H    2.127916   1.104412   2.128671   2.696880   2.843225
    12  H    2.165845   1.097609   2.152465   3.349114   4.124767
                    6          7          8          9         10
     6  O    0.000000
     7  H    4.816212   0.000000
     8  H    3.736490   3.626974   0.000000
     9  H    1.892215   3.397654   2.325678   0.000000
    10  H    2.016064   5.734560   4.378669   3.419253   0.000000
    11  H    3.056907   3.785408   2.838116   2.897338   2.592948
    12  H    3.146880   5.001402   2.482298   3.111772   2.547577
                   11         12
    11  H    0.000000
    12  H    1.769514   0.000000
 Symmetry turned off by external request.
 Stoichiometry    C3H6O3
 Framework group  C1[X(C3H6O3)]
 Deg. of freedom    30
 Full point group                 C1      NOp   1
 Rotational constants (GHZ):           6.4857739           2.0632819           1.9148723
 Standard basis: 6-31+G(d) (6D, 7F)
   126 basis functions,   216 primitive gaussians,   126 cartesian basis functions
    24 alpha electrons       24 beta electrons
       nuclear repulsion energy       236.1408538959 Hartrees.
 NAtoms=   12 NActive=   12 NUniq=   12 SFac= 1.00D+00 NAtFMM=   60 NAOKFM=F Big=F
 Integral buffers will be    131072 words long.
 Raffenetti 2 integral format.
 Two-electron integral symmetry is turned off.
 One-electron integrals computed using PRISM.
 NBasis=   126 RedAO= T EigKep=  1.17D-04  NBF=   126
 NBsUse=   126 1.00D-06 EigRej= -1.00D+00 NBFU=   126
 ExpMin= 4.38D-02 ExpMax= 5.48D+03 ExpMxC= 8.25D+02 IAcc=3 IRadAn=         5 AccDes= 0.00D+00
 Harris functional with IExCor=  402 and IRadAn=       5 diagonalized for initial guess.
 HarFok:  IExCor=  402 AccDes= 0.00D+00 IRadAn=         5 IDoV= 1 UseB2=F ITyADJ=14
 ICtDFT=  3500011 ScaDFX=  1.000000  1.000000  1.000000  1.000000
 FoFCou: FMM=F IPFlag=           0 FMFlag=      100000 FMFlg1=           0
         NFxFlg=           0 DoJE=T BraDBF=F KetDBF=T FulRan=T
         wScrn=  0.000000 ICntrl=       500 IOpCl=  0 I1Cent=   200000004 NGrid=           0
         NMat0=    1 NMatS0=      1 NMatT0=    0 NMatD0=    1 NMtDS0=    0 NMtDT0=    0
 Symmetry not used in FoFCou.
 Keep R1 ints in memory in canonical form, NReq=47237243.
 Requested convergence on RMS density matrix=1.00D-08 within 128 cycles.
 Requested convergence on MAX density matrix=1.00D-06.
 Requested convergence on             energy=1.00D-06.
 No special actions if energy rises.
 EnCoef did     4 forward-backward iterations
 EnCoef did     4 forward-backward iterations
 SCF Done:  E(RB3LYP) =  -343.392231596     A.U. after   17 cycles
            NFock= 17  Conv=0.30D-08     -V/T= 2.0092
 DoSCS=F DFT=T ScalE2(SS,OS)=  1.000000  1.000000
 Range of M.O.s used for correlation:     1   126
 NBasis=   126 NAE=    24 NBE=    24 NFC=     0 NFV=     0
 NROrb=    126 NOA=    24 NOB=    24 NVA=   102 NVB=   102

 **** Warning!!: The largest alpha MO coefficient is  0.33169628D+02

 Symmetrizing basis deriv contribution to polar:
 IMax=3 JMax=2 DiffMx= 0.00D+00
 G2DrvN: will do    13 centers at a time, making    1 passes.
 Calling FoFCou, ICntrl=  3107 FMM=F I1Cent=   0 AccDes= 0.00D+00.
 End of G2Drv F.D. properties file   721 does not exist.
 End of G2Drv F.D. properties file   722 does not exist.
 End of G2Drv F.D. properties file   788 does not exist.
          IDoAtm=111111111111
          Differentiating once with respect to nuclear coordinates.
 Keep R1 ints in memory in canonical form, NReq=47193265.
          There are    39 degrees of freedom in the 1st order CPHF.  IDoFFX=6 NUNeed=     0.
     33 vectors produced by pass  0 Test12= 6.28D-15 2.56D-09 XBig12= 1.48D-01 1.73D-01.
 AX will form    33 AO Fock derivatives at one time.
     33 vectors produced by pass  1 Test12= 6.28D-15 2.56D-09 XBig12= 2.82D-02 4.27D-02.
     33 vectors produced by pass  2 Test12= 6.28D-15 2.56D-09 XBig12= 5.68D-04 3.56D-03.
     33 vectors produced by pass  3 Test12= 6.28D-15 2.56D-09 XBig12= 3.01D-06 2.33D-04.
     33 vectors produced by pass  4 Test12= 6.28D-15 2.56D-09 XBig12= 7.60D-09 1.44D-05.
     30 vectors produced by pass  5 Test12= 6.28D-15 2.56D-09 XBig12= 9.15D-12 4.20D-07.
      6 vectors produced by pass  6 Test12= 6.28D-15 2.56D-09 XBig12= 8.47D-15 1.20D-08.
 InvSVY:  IOpt=1 It=  1 EMax= 1.11D-15
 Solved reduced A of dimension   201 with    33 vectors.
 End of Minotr F.D. properties file   721 does not exist.
 End of Minotr F.D. properties file   722 does not exist.
 End of Minotr F.D. properties file   788 does not exist.

 **********************************************************************

            Population analysis using the SCF Density.

 **********************************************************************

 Alpha  occ. eigenvalues --  -19.24512 -19.21154 -19.11037 -10.32951 -10.29899
 Alpha  occ. eigenvalues --  -10.24374  -1.11361  -1.09610  -0.89974  -0.81451
 Alpha  occ. eigenvalues --   -0.67005  -0.60003  -0.56570  -0.52090  -0.50625
 Alpha  occ. eigenvalues --   -0.48205  -0.46225  -0.45964  -0.40812  -0.38390
 Alpha  occ. eigenvalues --   -0.33791  -0.30928  -0.24108  -0.23190
 Alpha virt. eigenvalues --   -0.09721  -0.07367  -0.00605   0.00686   0.02077
 Alpha virt. eigenvalues --    0.03245   0.04369   0.05089   0.06992   0.07670
 Alpha virt. eigenvalues --    0.08413   0.09642   0.10893   0.13290   0.13738
 Alpha virt. eigenvalues --    0.16296   0.18046   0.19420   0.20130   0.20564
 Alpha virt. eigenvalues --    0.21781   0.22668   0.23323   0.24573   0.25289
 Alpha virt. eigenvalues --    0.26537   0.27204   0.28876   0.29270   0.31345
 Alpha virt. eigenvalues --    0.32785   0.34354   0.34729   0.37787   0.40954
 Alpha virt. eigenvalues --    0.44453   0.62231   0.62422   0.63008   0.66925
 Alpha virt. eigenvalues --    0.68105   0.70613   0.75702   0.76505   0.87527
 Alpha virt. eigenvalues --    0.91258   0.92465   0.97463   1.01075   1.03017
 Alpha virt. eigenvalues --    1.05584   1.07992   1.08813   1.16533   1.18400
 Alpha virt. eigenvalues --    1.19695   1.21658   1.23343   1.25436   1.27421
 Alpha virt. eigenvalues --    1.28347   1.33578   1.41202   1.44634   1.48790
 Alpha virt. eigenvalues --    1.51090   1.54878   1.58734   1.64035   1.68459
 Alpha virt. eigenvalues --    1.71797   1.73768   1.76926   1.79368   1.80501
 Alpha virt. eigenvalues --    1.83490   1.87447   1.92155   1.98705   2.01483
 Alpha virt. eigenvalues --    2.05249   2.06038   2.16338   2.23223   2.27135
 Alpha virt. eigenvalues --    2.34839   2.39050   2.49845   2.52142   2.52684
 Alpha virt. eigenvalues --    2.58165   2.70900   2.75389   2.86424   2.90702
 Alpha virt. eigenvalues --    3.01257   4.02616   4.10202   4.15089   4.19488
 Alpha virt. eigenvalues --    4.32482   4.50862
          Condensed to atoms (all electrons):
               1          2          3          4          5          6
     1  C    6.102703  -0.363486  -0.110168  -0.282743   0.140654   0.021322
     2  C   -0.363486   6.627075  -0.013221   0.080866  -0.069789  -0.158871
     3  C   -0.110168  -0.013221   5.099780   0.045716  -0.026450   0.443522
     4  O   -0.282743   0.080866   0.045716   8.625349  -0.144448  -0.010220
     5  O    0.140654  -0.069789  -0.026450  -0.144448   8.682882  -0.006404
     6  O    0.021322  -0.158871   0.443522  -0.010220  -0.006404   8.059768
     7  H   -0.010234   0.012017  -0.001844   0.010301   0.168149   0.000259
     8  H    0.339464  -0.045291   0.014979  -0.032236  -0.003126   0.000888
     9  H    0.344990  -0.153975   0.004158  -0.108806   0.027775   0.045743
    10  H    0.033891  -0.156526   0.411301  -0.003293  -0.000127  -0.056860
    11  H    0.026260   0.333205  -0.049595  -0.028680   0.012859   0.000749
    12  H   -0.040874   0.346081  -0.011409   0.009304  -0.000445   0.001870
               7          8          9         10         11         12
     1  C   -0.010234   0.339464   0.344990   0.033891   0.026260  -0.040874
     2  C    0.012017  -0.045291  -0.153975  -0.156526   0.333205   0.346081
     3  C   -0.001844   0.014979   0.004158   0.411301  -0.049595  -0.011409
     4  O    0.010301  -0.032236  -0.108806  -0.003293  -0.028680   0.009304
     5  O    0.168149  -0.003126   0.027775  -0.000127   0.012859  -0.000445
     6  O    0.000259   0.000888   0.045743  -0.056860   0.000749   0.001870
     7  H    0.391036   0.000196  -0.000795   0.000000  -0.000204   0.000001
     8  H    0.000196   0.517694   0.002783  -0.000108   0.000256   0.001134
     9  H   -0.000795   0.002783   0.454259   0.002113   0.004575  -0.000087
    10  H    0.000000  -0.000108   0.002113   0.579138   0.001287   0.000527
    11  H   -0.000204   0.000256   0.004575   0.001287   0.426494  -0.023141
    12  H    0.000001   0.001134  -0.000087   0.000527  -0.023141   0.482344
 Mulliken charges:
               1
     1  C   -0.201777
     2  C   -0.438086
     3  C    0.193230
     4  O   -0.161109
     5  O   -0.781531
     6  O   -0.341765
     7  H    0.431117
     8  H    0.203367
     9  H    0.377266
    10  H    0.188659
    11  H    0.295935
    12  H    0.234695
 Sum of Mulliken charges =  -0.00000
 Mulliken charges with hydrogens summed into heavy atoms:
               1
     1  C    0.001590
     2  C    0.092544
     3  C    0.381889
     4  O    0.216157
     5  O   -0.350414
     6  O   -0.341765
 APT charges:
               1
     1  C   -0.573989
     2  C   -0.783612
     3  C   -0.241805
     4  O   -0.118945
     5  O   -1.119401
     6  O   -0.351104
     7  H    0.716503
     8  H    0.543965
     9  H    0.371217
    10  H    0.582105
    11  H    0.432181
    12  H    0.542884
 Sum of APT charges =  -0.00000
 APT charges with hydrogens summed into heavy atoms:
               1
     1  C   -0.030024
     2  C    0.191454
     3  C    0.340300
     4  O    0.252272
     5  O   -0.402898
     6  O   -0.351104
 Electronic spatial extent (au):  <R**2>=            663.6087
 Charge=             -0.0000 electrons
 Dipole moment (field-independent basis, Debye):
    X=             -3.5236    Y=             -2.3476    Z=             -1.3694  Tot=              4.4499
 Quadrupole moment (field-independent basis, Debye-Ang):
   XX=            -39.6583   YY=            -35.1945   ZZ=            -36.0807
   XY=              7.1358   XZ=             -5.2004   YZ=              0.3886
 Traceless Quadrupole moment (field-independent basis, Debye-Ang):
   XX=             -2.6805   YY=              1.7833   ZZ=              0.8972
   XY=              7.1358   XZ=             -5.2004   YZ=              0.3886
 Octapole moment (field-independent basis, Debye-Ang**2):
  XXX=             -1.8302  YYY=              1.3354  ZZZ=             -2.0143  XYY=              5.1256
  XXY=              4.4491  XXZ=             -1.1774  XZZ=             -4.7178  YZZ=             -0.4987
  YYZ=             -1.4089  XYZ=              3.1479
 Hexadecapole moment (field-independent basis, Debye-Ang**3):
 XXXX=           -514.5128 YYYY=           -158.7467 ZZZZ=           -122.0769 XXXY=             55.8159
 XXXZ=            -16.7956 YYYX=              9.8984 YYYZ=              0.6172 ZZZX=            -10.8963
 ZZZY=              0.1063 XXYY=           -119.8454 XXZZ=           -116.9103 YYZZ=            -43.9328
 XXYZ=              5.4710 YYXZ=              1.7548 ZZXY=             -2.0729
 N-N= 2.361408538959D+02 E-N=-1.276647803461D+03  KE= 3.402573512543D+02
  Exact polarizability:   0.000   0.000   0.000   0.000   0.000   0.000
 Approx polarizability: 155.422  12.554  85.995  58.514   4.400 103.563
 Calling FoFJK, ICntrl=    100127 FMM=F ISym2X=0 I1Cent= 0 IOpClX= 0 NMat=1 NMatS=1 NMatT=0.
 -------------------------------------------------------------------
 Center     Atomic                   Forces (Hartrees/Bohr)
 Number     Number              X              Y              Z
 -------------------------------------------------------------------
      1        6          -0.000000099   -0.000000197    0.000000247
      2        6          -0.000000190   -0.000000126    0.000000365
      3        6           0.000000660   -0.000000150   -0.000000541
      4        8          -0.000000510    0.000001238   -0.000000106
      5        8           0.000000890   -0.000001858    0.000000161
      6        8           0.000000154    0.000000756   -0.000000401
      7        1          -0.000000804    0.000000891   -0.000000012
      8        1          -0.000000360   -0.000000662   -0.000000058
      9        1           0.000000944   -0.000000411    0.000000009
     10        1          -0.000000450    0.000000152    0.000000283
     11        1          -0.000000191    0.000000007   -0.000000170
     12        1          -0.000000044    0.000000361    0.000000223
 -------------------------------------------------------------------
 Cartesian Forces:  Max     0.000001858 RMS     0.000000565
 IRC-IRC-IRC-IRC-IRC-IRC-IRC-IRC-IRC-IRC-IRC-IRC-IRC-IRC-IRC-IRC-IRC-IRC
          ******** Start new reaction path calculation ********
 Supplied step size of   0.1500 bohr.
    Integration on MW PES will use step size of   0.1651 sqrt(amu)*bohr.
 Point Number:   0          Path Number:   1
 Calculating another point on the path.
 IRC-IRC-IRC-IRC-IRC-IRC-IRC-IRC-IRC-IRC-IRC-IRC-IRC-IRC-IRC-IRC-IRC-IRC
                          Input orientation:                          
 ---------------------------------------------------------------------
 Center     Atomic      Atomic             Coordinates (Angstroms)
 Number     Number       Type             X           Y           Z
 ---------------------------------------------------------------------
      1          6           0        0.330981   -0.530302   -0.864756
      2          6           0       -0.652840   -1.119584    0.101402
      3          6           0       -1.762662   -0.137316    0.443158
      4          8           0        1.009511    0.549259   -0.484211
      5          8           0        2.338103    0.013345    0.710504
      6          8           0       -1.773972    1.003830    0.022846
      7          1           0        3.002905    0.701009    0.525916
      8          1           0        0.769350   -1.157093   -1.646192
      9          1           0       -0.135844    0.792685   -0.893711
     10          1           0       -2.571793   -0.500243    1.102225
     11          1           0       -0.127786   -1.362671    1.041364
     12          1           0       -1.091641   -2.054228   -0.271105
 ---------------------------------------------------------------------
                    Distance matrix (angstroms):
                    1          2          3          4          5
     1  C    0.000000
     2  C    1.499539   0.000000
     3  C    2.499684   1.520971   0.000000
     4  O    1.330665   2.427218   3.002723   0.000000
     5  O    2.608742   3.255806   4.112232   1.865396   0.000000
     6  O    2.751768   2.402498   1.216144   2.865575   4.285218
     7  H    3.254116   4.106001   4.839450   2.239867   0.974124
     8  H    1.093470   2.253467   3.437502   2.078344   3.063483
     9  H    1.403231   2.216823   2.301881   1.240477   3.049801
    10  H    3.506567   2.251136   1.104888   4.055117   4.952202
    11  H    2.129928   1.103766   2.128888   2.697461   2.843149
    12  H    2.167631   1.097665   2.152904   3.352372   4.123294
                    6          7          8          9         10
     6  O    0.000000
     7  H    4.812830   0.000000
     8  H    3.731456   3.627584   0.000000
     9  H    1.888947   3.446084   2.277551   0.000000
    10  H    2.015890   5.731702   4.375898   3.404301   0.000000
    11  H    3.057390   3.784930   2.840787   2.896573   2.592423
    12  H    3.147015   4.999188   2.481734   3.066936   2.547892
                   11         12
    11  H    0.000000
    12  H    1.769135   0.000000
 Symmetry turned off by external request.
 Stoichiometry    C3H6O3
 Framework group  C1[X(C3H6O3)]
 Deg. of freedom    30
 Full point group                 C1      NOp   1
 Rotational constants (GHZ):           6.4978406           2.0627740           1.9154322
 Standard basis: 6-31+G(d) (6D, 7F)
   126 basis functions,   216 primitive gaussians,   126 cartesian basis functions
    24 alpha electrons       24 beta electrons
       nuclear repulsion energy       236.1401655538 Hartrees.
 NAtoms=   12 NActive=   12 NUniq=   12 SFac= 1.00D+00 NAtFMM=   60 NAOKFM=F Big=F
 Integral buffers will be    131072 words long.
 Raffenetti 2 integral format.
 Two-electron integral symmetry is turned off.
 One-electron integrals computed using PRISM.
 NBasis=   126 RedAO= T EigKep=  1.19D-04  NBF=   126
 NBsUse=   126 1.00D-06 EigRej= -1.00D+00 NBFU=   126
 Initial guess from the checkpoint file:  "/scratch/bell/zhao922/YARP/paper-example/KHP-network/pp_0/IRC-folder/Gau-70939.chk"
 B after Tr=    -0.002866   -0.069773   -0.002739
         Rot=    1.000000    0.000395   -0.000086   -0.000071 Ang=   0.05 deg.
 ExpMin= 4.38D-02 ExpMax= 5.48D+03 ExpMxC= 8.25D+02 IAcc=3 IRadAn=         5 AccDes= 0.00D+00
 Harris functional with IExCor=  402 and IRadAn=       5 diagonalized for initial guess.
 HarFok:  IExCor=  402 AccDes= 0.00D+00 IRadAn=         5 IDoV= 1 UseB2=F ITyADJ=14
 ICtDFT=  3500011 ScaDFX=  1.000000  1.000000  1.000000  1.000000
 FoFCou: FMM=F IPFlag=           0 FMFlag=      100000 FMFlg1=           0
         NFxFlg=           0 DoJE=T BraDBF=F KetDBF=T FulRan=T
         wScrn=  0.000000 ICntrl=       500 IOpCl=  0 I1Cent=   200000004 NGrid=           0
         NMat0=    1 NMatS0=      1 NMatT0=    0 NMatD0=    1 NMtDS0=    0 NMtDT0=    0
 Symmetry not used in FoFCou.
 Keep R1 ints in memory in canonical form, NReq=47237243.
 Requested convergence on RMS density matrix=1.00D-08 within 128 cycles.
 Requested convergence on MAX density matrix=1.00D-06.
 Requested convergence on             energy=1.00D-06.
 No special actions if energy rises.
 EnCoef did     6 forward-backward iterations
 SCF Done:  E(RB3LYP) =  -343.393485029     A.U. after   13 cycles
            NFock= 13  Conv=0.45D-08     -V/T= 2.0093
 DoSCS=F DFT=T ScalE2(SS,OS)=  1.000000  1.000000
 Range of M.O.s used for correlation:     1   126
 NBasis=   126 NAE=    24 NBE=    24 NFC=     0 NFV=     0
 NROrb=    126 NOA=    24 NOB=    24 NVA=   102 NVB=   102

 **** Warning!!: The largest alpha MO coefficient is  0.31332192D+02

 Symmetrizing basis deriv contribution to polar:
 IMax=3 JMax=2 DiffMx= 0.00D+00
 G2DrvN: will do    13 centers at a time, making    1 passes.
 Calling FoFCou, ICntrl=  3107 FMM=F I1Cent=   0 AccDes= 0.00D+00.
 End of G2Drv F.D. properties file   721 does not exist.
 End of G2Drv F.D. properties file   722 does not exist.
 End of G2Drv F.D. properties file   788 does not exist.
          IDoAtm=111111111111
          Differentiating once with respect to nuclear coordinates.
 Keep R1 ints in memory in canonical form, NReq=47193265.
          There are    39 degrees of freedom in the 1st order CPHF.  IDoFFX=6 NUNeed=     0.
     33 vectors produced by pass  0 Test12= 6.28D-15 2.56D-09 XBig12= 1.48D-01 1.74D-01.
 AX will form    33 AO Fock derivatives at one time.
     33 vectors produced by pass  1 Test12= 6.28D-15 2.56D-09 XBig12= 2.78D-02 4.17D-02.
     33 vectors produced by pass  2 Test12= 6.28D-15 2.56D-09 XBig12= 5.62D-04 3.44D-03.
     33 vectors produced by pass  3 Test12= 6.28D-15 2.56D-09 XBig12= 3.12D-06 2.37D-04.
     33 vectors produced by pass  4 Test12= 6.28D-15 2.56D-09 XBig12= 8.66D-09 1.52D-05.
     30 vectors produced by pass  5 Test12= 6.28D-15 2.56D-09 XBig12= 1.01D-11 4.26D-07.
      6 vectors produced by pass  6 Test12= 6.28D-15 2.56D-09 XBig12= 9.54D-15 1.50D-08.
 InvSVY:  IOpt=1 It=  1 EMax= 1.33D-15
 Solved reduced A of dimension   201 with    33 vectors.
 End of Minotr F.D. properties file   721 does not exist.
 End of Minotr F.D. properties file   722 does not exist.
 End of Minotr F.D. properties file   788 does not exist.
 Calling FoFJK, ICntrl=    100127 FMM=F ISym2X=0 I1Cent= 0 IOpClX= 0 NMat=1 NMatS=1 NMatT=0.
 -------------------------------------------------------------------
 Center     Atomic                   Forces (Hartrees/Bohr)
 Number     Number              X              Y              Z
 -------------------------------------------------------------------
      1        6          -0.005161163    0.010287676   -0.000398789
      2        6           0.000291320   -0.001039082    0.001597534
      3        6           0.000054108    0.000241148    0.000210660
      4        8           0.017311191   -0.001680763    0.012629328
      5        8          -0.004095469    0.000488190   -0.004426866
      6        8          -0.000883134   -0.000570609   -0.000005280
      7        1          -0.000571526    0.000313034   -0.000533377
      8        1          -0.000957175    0.000862605   -0.000550496
      9        1          -0.005963856   -0.008659473   -0.008670347
     10        1           0.000052563   -0.000013993    0.000102527
     11        1          -0.000106409   -0.000179687    0.000051836
     12        1           0.000029547   -0.000049046   -0.000006730
 -------------------------------------------------------------------
 Cartesian Forces:  Max     0.017311191 RMS     0.004786078
 IRC-IRC-IRC-IRC-IRC-IRC-IRC-IRC-IRC-IRC-IRC-IRC-IRC-IRC-IRC-IRC-IRC-IRC
 Pt  1 Step number   1 out of a maximum of 100
 Modified Bulirsch-Stoer Extrapolation Cycles:
    EPS =    0.000010000000000
      PEZero:  N= 2 I= 1 D=  4.30D-04 Err=  7.37D-04
      PEZero:  N= 3 I= 2 D=  4.30D-04 Err=  4.91D-04
      PEZero:  N= 3 I= 1 D=  8.60D-04 Err=  4.70D-08
 Maximum DWI energy   std dev =  0.000001625 at pt    50
 Maximum DWI gradient std dev =  0.009925930 at pt    43
 CORRECTOR INTEGRATION CONVERGENCE:
   Recorrection delta-x convergence threshold:    0.010000
   Delta-x Convergence Met
 Point Number:   1          Path Number:   1
   CHANGE IN THE REACTION COORDINATE =    0.16513
   NET REACTION COORDINATE UP TO THIS POINT =    0.16513
  # OF POINTS ALONG THE PATH =   1
  # OF STEPS =   1

 Calculating another point on the path.
 IRC-IRC-IRC-IRC-IRC-IRC-IRC-IRC-IRC-IRC-IRC-IRC-IRC-IRC-IRC-IRC-IRC-IRC
                          Input orientation:                          
 ---------------------------------------------------------------------
 Center     Atomic      Atomic             Coordinates (Angstroms)
 Number     Number       Type             X           Y           Z
 ---------------------------------------------------------------------
      1          6           0        0.328454   -0.525347   -0.865002
      2          6           0       -0.652710   -1.120081    0.102191
      3          6           0       -1.762643   -0.137202    0.443266
      4          8           0        1.015830    0.548629   -0.479654
      5          8           0        2.336595    0.013547    0.708906
      6          8           0       -1.774310    1.003623    0.022860
      7          1           0        2.999537    0.702772    0.522831
      8          1           0        0.764124   -1.152287   -1.649267
      9          1           0       -0.169865    0.743208   -0.943278
     10          1           0       -2.571418   -0.500340    1.102804
     11          1           0       -0.128402   -1.363761    1.041661
     12          1           0       -1.091458   -2.054486   -0.271175
 ---------------------------------------------------------------------
                    Distance matrix (angstroms):
                    1          2          3          4          5
     1  C    0.000000
     2  C    1.500617   0.000000
     3  C    2.496980   1.521294   0.000000
     4  O    1.332068   2.430465   3.007002   0.000000
     5  O    2.607724   3.254099   4.110602   1.855642   0.000000
     6  O    2.747301   2.402998   1.215878   2.871310   4.283743
     7  H    3.251007   4.103491   4.836347   2.227966   0.974242
     8  H    1.094502   2.253011   3.434188   2.079536   3.064770
     9  H    1.365167   2.190432   2.287919   1.287898   3.089411
    10  H    3.504589   2.250944   1.104977   4.058677   4.950538
    11  H    2.132375   1.103124   2.129147   2.698315   2.843223
    12  H    2.169573   1.097731   2.153345   3.355642   4.121755
                    6          7          8          9         10
     6  O    0.000000
     7  H    4.809377   0.000000
     8  H    3.726608   3.627166   0.000000
     9  H    1.890895   3.492309   2.227927   0.000000
    10  H    2.015828   5.728821   4.373187   3.391212   0.000000
    11  H    3.058018   3.784673   2.842960   2.895000   2.591825
    12  H    3.147185   4.996915   2.481186   3.021283   2.548229
                   11         12
    11  H    0.000000
    12  H    1.768648   0.000000
 Symmetry turned off by external request.
 Stoichiometry    C3H6O3
 Framework group  C1[X(C3H6O3)]
 Deg. of freedom    30
 Full point group                 C1      NOp   1
 Rotational constants (GHZ):           6.5096694           2.0622224           1.9160148
 Standard basis: 6-31+G(d) (6D, 7F)
   126 basis functions,   216 primitive gaussians,   126 cartesian basis functions
    24 alpha electrons       24 beta electrons
       nuclear repulsion energy       236.1487113549 Hartrees.
 NAtoms=   12 NActive=   12 NUniq=   12 SFac= 1.00D+00 NAtFMM=   60 NAOKFM=F Big=F
 Integral buffers will be    131072 words long.
 Raffenetti 2 integral format.
 Two-electron integral symmetry is turned off.
 One-electron integrals computed using PRISM.
 NBasis=   126 RedAO= T EigKep=  1.20D-04  NBF=   126
 NBsUse=   126 1.00D-06 EigRej= -1.00D+00 NBFU=   126
 Initial guess from the checkpoint file:  "/scratch/bell/zhao922/YARP/paper-example/KHP-network/pp_0/IRC-folder/Gau-70939.chk"
 B after Tr=    -0.000842   -0.000864   -0.001130
         Rot=    1.000000    0.000410   -0.000080   -0.000070 Ang=   0.05 deg.
 ExpMin= 4.38D-02 ExpMax= 5.48D+03 ExpMxC= 8.25D+02 IAcc=3 IRadAn=         5 AccDes= 0.00D+00
 Harris functional with IExCor=  402 and IRadAn=       5 diagonalized for initial guess.
 HarFok:  IExCor=  402 AccDes= 0.00D+00 IRadAn=         5 IDoV= 1 UseB2=F ITyADJ=14
 ICtDFT=  3500011 ScaDFX=  1.000000  1.000000  1.000000  1.000000
 FoFCou: FMM=F IPFlag=           0 FMFlag=      100000 FMFlg1=           0
         NFxFlg=           0 DoJE=T BraDBF=F KetDBF=T FulRan=T
         wScrn=  0.000000 ICntrl=       500 IOpCl=  0 I1Cent=   200000004 NGrid=           0
         NMat0=    1 NMatS0=      1 NMatT0=    0 NMatD0=    1 NMtDS0=    0 NMtDT0=    0
 Symmetry not used in FoFCou.
 Keep R1 ints in memory in canonical form, NReq=47237243.
 Requested convergence on RMS density matrix=1.00D-08 within 128 cycles.
 Requested convergence on MAX density matrix=1.00D-06.
 Requested convergence on             energy=1.00D-06.
 No special actions if energy rises.
 EnCoef did     7 forward-backward iterations
 SCF Done:  E(RB3LYP) =  -343.397166362     A.U. after   13 cycles
            NFock= 13  Conv=0.38D-08     -V/T= 2.0093
 DoSCS=F DFT=T ScalE2(SS,OS)=  1.000000  1.000000
 Range of M.O.s used for correlation:     1   126
 NBasis=   126 NAE=    24 NBE=    24 NFC=     0 NFV=     0
 NROrb=    126 NOA=    24 NOB=    24 NVA=   102 NVB=   102

 **** Warning!!: The largest alpha MO coefficient is  0.32757451D+02

 Symmetrizing basis deriv contribution to polar:
 IMax=3 JMax=2 DiffMx= 0.00D+00
 G2DrvN: will do    13 centers at a time, making    1 passes.
 Calling FoFCou, ICntrl=  3107 FMM=F I1Cent=   0 AccDes= 0.00D+00.
 End of G2Drv F.D. properties file   721 does not exist.
 End of G2Drv F.D. properties file   722 does not exist.
 End of G2Drv F.D. properties file   788 does not exist.
          IDoAtm=111111111111
          Differentiating once with respect to nuclear coordinates.
 Keep R1 ints in memory in canonical form, NReq=47193265.
          There are    39 degrees of freedom in the 1st order CPHF.  IDoFFX=6 NUNeed=     0.
     33 vectors produced by pass  0 Test12= 6.28D-15 2.56D-09 XBig12= 1.48D-01 1.27D-01.
 AX will form    33 AO Fock derivatives at one time.
     33 vectors produced by pass  1 Test12= 6.28D-15 2.56D-09 XBig12= 2.60D-02 3.84D-02.
     33 vectors produced by pass  2 Test12= 6.28D-15 2.56D-09 XBig12= 4.98D-04 3.29D-03.
     33 vectors produced by pass  3 Test12= 6.28D-15 2.56D-09 XBig12= 2.64D-06 2.31D-04.
     33 vectors produced by pass  4 Test12= 6.28D-15 2.56D-09 XBig12= 7.00D-09 1.13D-05.
     29 vectors produced by pass  5 Test12= 6.28D-15 2.56D-09 XBig12= 7.92D-12 3.48D-07.
      6 vectors produced by pass  6 Test12= 6.28D-15 2.56D-09 XBig12= 7.34D-15 1.24D-08.
 InvSVY:  IOpt=1 It=  1 EMax= 2.11D-15
 Solved reduced A of dimension   200 with    33 vectors.
 End of Minotr F.D. properties file   721 does not exist.
 End of Minotr F.D. properties file   722 does not exist.
 End of Minotr F.D. properties file   788 does not exist.
 Calling FoFJK, ICntrl=    100127 FMM=F ISym2X=0 I1Cent= 0 IOpClX= 0 NMat=1 NMatS=1 NMatT=0.
 -------------------------------------------------------------------
 Center     Atomic                   Forces (Hartrees/Bohr)
 Number     Number              X              Y              Z
 -------------------------------------------------------------------
      1        6          -0.010448425    0.020070522   -0.001407848
      2        6           0.000522811   -0.001989001    0.003268335
      3        6           0.000108423    0.000434965    0.000451362
      4        8           0.033834737   -0.003266289    0.024499876
      5        8          -0.008413453    0.001144907   -0.008743928
      6        8          -0.001904217   -0.001103060    0.000101535
      7        1          -0.001158719    0.000624669   -0.001082446
      8        1          -0.001715385    0.001607305   -0.000914004
      9        1          -0.010789539   -0.017003740   -0.016483539
     10        1           0.000115905   -0.000039606    0.000219156
     11        1          -0.000218406   -0.000394184    0.000120468
     12        1           0.000066267   -0.000086488   -0.000028968
 -------------------------------------------------------------------
 Cartesian Forces:  Max     0.033834737 RMS     0.009317262
 IRC-IRC-IRC-IRC-IRC-IRC-IRC-IRC-IRC-IRC-IRC-IRC-IRC-IRC-IRC-IRC-IRC-IRC
 Pt  2 Step number   1 out of a maximum of 100
 Modified Bulirsch-Stoer Extrapolation Cycles:
    EPS =    0.000010000000000
      PEZero:  N= 2 I= 1 D=  8.60D-04 Err=  2.97D-05
      PEZero:  N= 3 I= 2 D=  8.60D-04 Err=  1.98D-05
      PEZero:  N= 3 I= 1 D=  1.72D-03 Err=  6.22D-08
 Maximum DWI energy   std dev =  0.000010243 at pt    27
 Maximum DWI gradient std dev =  0.007723079 at pt    23
 CORRECTOR INTEGRATION CONVERGENCE:
   Recorrection delta-x convergence threshold:    0.010000
   Delta-x Convergence Met
 Point Number:   2          Path Number:   1
   CHANGE IN THE REACTION COORDINATE =    0.16507
   NET REACTION COORDINATE UP TO THIS POINT =    0.33020
  # OF POINTS ALONG THE PATH =   2
  # OF STEPS =   1

 Calculating another point on the path.
 IRC-IRC-IRC-IRC-IRC-IRC-IRC-IRC-IRC-IRC-IRC-IRC-IRC-IRC-IRC-IRC-IRC-IRC
                          Input orientation:                          
 ---------------------------------------------------------------------
 Center     Atomic      Atomic             Coordinates (Angstroms)
 Number     Number       Type             X           Y           Z
 ---------------------------------------------------------------------
      1          6           0        0.325766   -0.520283   -0.865437
      2          6           0       -0.652582   -1.120579    0.103038
      3          6           0       -1.762615   -0.137092    0.443384
      4          8           0        1.022250    0.548015   -0.475015
      5          8           0        2.334953    0.013784    0.707230
      6          8           0       -1.774691    1.003413    0.022891
      7          1           0        2.995965    0.704664    0.519509
      8          1           0        0.759238   -1.147593   -1.651789
      9          1           0       -0.200950    0.691905   -0.992242
     10          1           0       -2.571048   -0.500486    1.103496
     11          1           0       -0.129081   -1.365015    1.042040
     12          1           0       -1.091245   -2.054731   -0.271282
 ---------------------------------------------------------------------
                    Distance matrix (angstroms):
                    1          2          3          4          5
     1  C    0.000000
     2  C    1.501821   0.000000
     3  C    2.494230   1.521596   0.000000
     4  O    1.333708   2.433807   3.011362   0.000000
     5  O    2.606787   3.252260   4.108825   1.845615   0.000000
     6  O    2.742753   2.403517   1.215611   2.877182   4.282155
     7  H    3.247851   4.100837   4.833056   2.215665   0.974418
     8  H    1.095338   2.252418   3.430831   2.080639   3.065395
     9  H    1.327746   2.165343   2.277511   1.335831   3.127116
    10  H    3.502659   2.250765   1.105155   4.062369   4.948772
    11  H    2.135164   1.102509   2.129464   2.699389   2.843352
    12  H    2.171514   1.097807   2.153793   3.358966   4.120082
                    6          7          8          9         10
     6  O    0.000000
     7  H    4.805730   0.000000
     8  H    3.721851   3.626064   0.000000
     9  H    1.898472   3.536357   2.177318   0.000000
    10  H    2.015838   5.725824   4.370486   3.381018   0.000000
    11  H    3.058782   3.784511   2.844837   2.893854   2.591214
    12  H    3.147361   4.994487   2.480522   2.975974   2.548629
                   11         12
    11  H    0.000000
    12  H    1.768130   0.000000
 Symmetry turned off by external request.
 Stoichiometry    C3H6O3
 Framework group  C1[X(C3H6O3)]
 Deg. of freedom    30
 Full point group                 C1      NOp   1
 Rotational constants (GHZ):           6.5209226           2.0616732           1.9166077
 Standard basis: 6-31+G(d) (6D, 7F)
   126 basis functions,   216 primitive gaussians,   126 cartesian basis functions
    24 alpha electrons       24 beta electrons
       nuclear repulsion energy       236.1597054359 Hartrees.
 NAtoms=   12 NActive=   12 NUniq=   12 SFac= 1.00D+00 NAtFMM=   60 NAOKFM=F Big=F
 Integral buffers will be    131072 words long.
 Raffenetti 2 integral format.
 Two-electron integral symmetry is turned off.
 One-electron integrals computed using PRISM.
 NBasis=   126 RedAO= T EigKep=  1.21D-04  NBF=   126
 NBsUse=   126 1.00D-06 EigRej= -1.00D+00 NBFU=   126
 Initial guess from the checkpoint file:  "/scratch/bell/zhao922/YARP/paper-example/KHP-network/pp_0/IRC-folder/Gau-70939.chk"
 B after Tr=    -0.000783   -0.000902   -0.001111
         Rot=    1.000000    0.000422   -0.000074   -0.000068 Ang=   0.05 deg.
 ExpMin= 4.38D-02 ExpMax= 5.48D+03 ExpMxC= 8.25D+02 IAcc=3 IRadAn=         5 AccDes= 0.00D+00
 Harris functional with IExCor=  402 and IRadAn=       5 diagonalized for initial guess.
 HarFok:  IExCor=  402 AccDes= 0.00D+00 IRadAn=         5 IDoV= 1 UseB2=F ITyADJ=14
 ICtDFT=  3500011 ScaDFX=  1.000000  1.000000  1.000000  1.000000
 FoFCou: FMM=F IPFlag=           0 FMFlag=      100000 FMFlg1=           0
         NFxFlg=           0 DoJE=T BraDBF=F KetDBF=T FulRan=T
         wScrn=  0.000000 ICntrl=       500 IOpCl=  0 I1Cent=   200000004 NGrid=           0
         NMat0=    1 NMatS0=      1 NMatT0=    0 NMatD0=    1 NMtDS0=    0 NMtDT0=    0
 Symmetry not used in FoFCou.
 Keep R1 ints in memory in canonical form, NReq=47237243.
 Requested convergence on RMS density matrix=1.00D-08 within 128 cycles.
 Requested convergence on MAX density matrix=1.00D-06.
 Requested convergence on             energy=1.00D-06.
 No special actions if energy rises.
 EnCoef did     7 forward-backward iterations
 SCF Done:  E(RB3LYP) =  -343.402929813     A.U. after   13 cycles
            NFock= 13  Conv=0.33D-08     -V/T= 2.0093
 DoSCS=F DFT=T ScalE2(SS,OS)=  1.000000  1.000000
 Range of M.O.s used for correlation:     1   126
 NBasis=   126 NAE=    24 NBE=    24 NFC=     0 NFV=     0
 NROrb=    126 NOA=    24 NOB=    24 NVA=   102 NVB=   102

 **** Warning!!: The largest alpha MO coefficient is  0.34088249D+02

 Symmetrizing basis deriv contribution to polar:
 IMax=3 JMax=2 DiffMx= 0.00D+00
 G2DrvN: will do    13 centers at a time, making    1 passes.
 Calling FoFCou, ICntrl=  3107 FMM=F I1Cent=   0 AccDes= 0.00D+00.
 End of G2Drv F.D. properties file   721 does not exist.
 End of G2Drv F.D. properties file   722 does not exist.
 End of G2Drv F.D. properties file   788 does not exist.
          IDoAtm=111111111111
          Differentiating once with respect to nuclear coordinates.
 Keep R1 ints in memory in canonical form, NReq=47193265.
          There are    39 degrees of freedom in the 1st order CPHF.  IDoFFX=6 NUNeed=     0.
     33 vectors produced by pass  0 Test12= 6.28D-15 2.56D-09 XBig12= 1.48D-01 1.57D-01.
 AX will form    33 AO Fock derivatives at one time.
     33 vectors produced by pass  1 Test12= 6.28D-15 2.56D-09 XBig12= 2.53D-02 5.27D-02.
     33 vectors produced by pass  2 Test12= 6.28D-15 2.56D-09 XBig12= 4.25D-04 2.94D-03.
     33 vectors produced by pass  3 Test12= 6.28D-15 2.56D-09 XBig12= 2.09D-06 2.18D-04.
     33 vectors produced by pass  4 Test12= 6.28D-15 2.56D-09 XBig12= 5.09D-09 9.29D-06.
     29 vectors produced by pass  5 Test12= 6.28D-15 2.56D-09 XBig12= 5.80D-12 2.84D-07.
      5 vectors produced by pass  6 Test12= 6.28D-15 2.56D-09 XBig12= 5.27D-15 9.70D-09.
 InvSVY:  IOpt=1 It=  1 EMax= 1.55D-15
 Solved reduced A of dimension   199 with    33 vectors.
 End of Minotr F.D. properties file   721 does not exist.
 End of Minotr F.D. properties file   722 does not exist.
 End of Minotr F.D. properties file   788 does not exist.
 Calling FoFJK, ICntrl=    100127 FMM=F ISym2X=0 I1Cent= 0 IOpClX= 0 NMat=1 NMatS=1 NMatT=0.
 -------------------------------------------------------------------
 Center     Atomic                   Forces (Hartrees/Bohr)
 Number     Number              X              Y              Z
 -------------------------------------------------------------------
      1        6          -0.015423793    0.028249416   -0.003120696
      2        6           0.000707965   -0.002748720    0.004888640
      3        6           0.000196661    0.000589618    0.000696615
      4        8           0.047812589   -0.004431255    0.034623790
      5        8          -0.012801578    0.001891039   -0.012788327
      6        8          -0.002988592   -0.001555607    0.000289823
      7        1          -0.001726117    0.000927353   -0.001622405
      8        1          -0.002168874    0.002132476   -0.000981948
      9        1          -0.013550488   -0.024235729   -0.022485171
     10        1           0.000164716   -0.000079648    0.000355654
     11        1          -0.000330364   -0.000629429    0.000205491
     12        1           0.000107877   -0.000109513   -0.000061467
 -------------------------------------------------------------------
 Cartesian Forces:  Max     0.047812589 RMS     0.013143862
 IRC-IRC-IRC-IRC-IRC-IRC-IRC-IRC-IRC-IRC-IRC-IRC-IRC-IRC-IRC-IRC-IRC-IRC
 Pt  3 Step number   1 out of a maximum of 100
 Modified Bulirsch-Stoer Extrapolation Cycles:
    EPS =    0.000010000000000
      PEZero:  N= 2 I= 1 D=  8.60D-04 Err=  3.88D-05
      PEZero:  N= 3 I= 2 D=  8.60D-04 Err=  2.58D-05
      PEZero:  N= 3 I= 1 D=  1.72D-03 Err=  5.75D-08
 Maximum DWI energy   std dev =  0.000013700 at pt    28
 Maximum DWI gradient std dev =  0.004149279 at pt    35
 CORRECTOR INTEGRATION CONVERGENCE:
   Recorrection delta-x convergence threshold:    0.010000
   Delta-x Convergence Met
 Point Number:   3          Path Number:   1
   CHANGE IN THE REACTION COORDINATE =    0.16508
   NET REACTION COORDINATE UP TO THIS POINT =    0.49527
  # OF POINTS ALONG THE PATH =   3
  # OF STEPS =   1

 Calculating another point on the path.
 IRC-IRC-IRC-IRC-IRC-IRC-IRC-IRC-IRC-IRC-IRC-IRC-IRC-IRC-IRC-IRC-IRC-IRC
                          Input orientation:                          
 ---------------------------------------------------------------------
 Center     Atomic      Atomic             Coordinates (Angstroms)
 Number     Number       Type             X           Y           Z
 ---------------------------------------------------------------------
      1          6           0        0.322883   -0.515138   -0.866112
      2          6           0       -0.652455   -1.121076    0.103961
      3          6           0       -1.762576   -0.136985    0.443519
      4          8           0        1.028836    0.547422   -0.470240
      5          8           0        2.333119    0.014066    0.705430
      6          8           0       -1.775124    1.003198    0.022942
      7          1           0        2.992073    0.706731    0.515859
      8          1           0        0.754820   -1.143138   -1.653618
      9          1           0       -0.228716    0.638999   -1.040489
     10          1           0       -2.570681   -0.500686    1.104317
     11          1           0       -0.129823   -1.366467    1.042516
     12          1           0       -1.090995   -2.054952   -0.271440
 ---------------------------------------------------------------------
                    Distance matrix (angstroms):
                    1          2          3          4          5
     1  C    0.000000
     2  C    1.503159   0.000000
     3  C    2.491440   1.521875   0.000000
     4  O    1.335708   2.437279   3.015849   0.000000
     5  O    2.605925   3.250225   4.106839   1.835163   0.000000
     6  O    2.738137   2.404057   1.215343   2.883253   4.280401
     7  H    3.244593   4.097941   4.829469   2.202742   0.974650
     8  H    1.095956   2.251664   3.427478   2.081696   3.065168
     9  H    1.291009   2.141772   2.270937   1.383838   3.162559
    10  H    3.500787   2.250598   1.105426   4.066237   4.946851
    11  H    2.138356   1.101929   2.129861   2.700720   2.843515
    12  H    2.173411   1.097893   2.154249   3.362373   4.118212
                    6          7          8          9         10
     6  O    0.000000
     7  H    4.801773   0.000000
     8  H    3.717287   3.624079   0.000000
     9  H    1.911780   3.577750   2.125861   0.000000
    10  H    2.015924   5.722619   4.367826   3.374000   0.000000
    11  H    3.059716   3.784409   2.846332   2.893197   2.590596
    12  H    3.147535   4.991811   2.479688   2.931269   2.549102
                   11         12
    11  H    0.000000
    12  H    1.767582   0.000000
 Symmetry turned off by external request.
 Stoichiometry    C3H6O3
 Framework group  C1[X(C3H6O3)]
 Deg. of freedom    30
 Full point group                 C1      NOp   1
 Rotational constants (GHZ):           6.5315772           2.0611642           1.9172217
 Standard basis: 6-31+G(d) (6D, 7F)
   126 basis functions,   216 primitive gaussians,   126 cartesian basis functions
    24 alpha electrons       24 beta electrons
       nuclear repulsion energy       236.1731237765 Hartrees.
 NAtoms=   12 NActive=   12 NUniq=   12 SFac= 1.00D+00 NAtFMM=   60 NAOKFM=F Big=F
 Integral buffers will be    131072 words long.
 Raffenetti 2 integral format.
 Two-electron integral symmetry is turned off.
 One-electron integrals computed using PRISM.
 NBasis=   126 RedAO= T EigKep=  1.21D-04  NBF=   126
 NBsUse=   126 1.00D-06 EigRej= -1.00D+00 NBFU=   126
 Initial guess from the checkpoint file:  "/scratch/bell/zhao922/YARP/paper-example/KHP-network/pp_0/IRC-folder/Gau-70939.chk"
 B after Tr=    -0.000716   -0.000938   -0.001090
         Rot=    1.000000    0.000435   -0.000068   -0.000067 Ang=   0.05 deg.
 ExpMin= 4.38D-02 ExpMax= 5.48D+03 ExpMxC= 8.25D+02 IAcc=3 IRadAn=         5 AccDes= 0.00D+00
 Harris functional with IExCor=  402 and IRadAn=       5 diagonalized for initial guess.
 HarFok:  IExCor=  402 AccDes= 0.00D+00 IRadAn=         5 IDoV= 1 UseB2=F ITyADJ=14
 ICtDFT=  3500011 ScaDFX=  1.000000  1.000000  1.000000  1.000000
 FoFCou: FMM=F IPFlag=           0 FMFlag=      100000 FMFlg1=           0
         NFxFlg=           0 DoJE=T BraDBF=F KetDBF=T FulRan=T
         wScrn=  0.000000 ICntrl=       500 IOpCl=  0 I1Cent=   200000004 NGrid=           0
         NMat0=    1 NMatS0=      1 NMatT0=    0 NMatD0=    1 NMtDS0=    0 NMtDT0=    0
 Symmetry not used in FoFCou.
 Keep R1 ints in memory in canonical form, NReq=47237243.
 Requested convergence on RMS density matrix=1.00D-08 within 128 cycles.
 Requested convergence on MAX density matrix=1.00D-06.
 Requested convergence on             energy=1.00D-06.
 No special actions if energy rises.
 EnCoef did     7 forward-backward iterations
 SCF Done:  E(RB3LYP) =  -343.410241743     A.U. after   13 cycles
            NFock= 13  Conv=0.31D-08     -V/T= 2.0093
 DoSCS=F DFT=T ScalE2(SS,OS)=  1.000000  1.000000
 Range of M.O.s used for correlation:     1   126
 NBasis=   126 NAE=    24 NBE=    24 NFC=     0 NFV=     0
 NROrb=    126 NOA=    24 NOB=    24 NVA=   102 NVB=   102

 **** Warning!!: The largest alpha MO coefficient is  0.34517152D+02

 Symmetrizing basis deriv contribution to polar:
 IMax=3 JMax=2 DiffMx= 0.00D+00
 G2DrvN: will do    13 centers at a time, making    1 passes.
 Calling FoFCou, ICntrl=  3107 FMM=F I1Cent=   0 AccDes= 0.00D+00.
 End of G2Drv F.D. properties file   721 does not exist.
 End of G2Drv F.D. properties file   722 does not exist.
 End of G2Drv F.D. properties file   788 does not exist.
          IDoAtm=111111111111
          Differentiating once with respect to nuclear coordinates.
 Keep R1 ints in memory in canonical form, NReq=47193265.
          There are    39 degrees of freedom in the 1st order CPHF.  IDoFFX=6 NUNeed=     0.
     33 vectors produced by pass  0 Test12= 6.28D-15 2.56D-09 XBig12= 1.48D-01 1.45D-01.
 AX will form    33 AO Fock derivatives at one time.
     33 vectors produced by pass  1 Test12= 6.28D-15 2.56D-09 XBig12= 3.28D-02 6.38D-02.
     33 vectors produced by pass  2 Test12= 6.28D-15 2.56D-09 XBig12= 3.64D-04 2.57D-03.
     33 vectors produced by pass  3 Test12= 6.28D-15 2.56D-09 XBig12= 1.91D-06 2.00D-04.
     33 vectors produced by pass  4 Test12= 6.28D-15 2.56D-09 XBig12= 3.79D-09 8.21D-06.
     29 vectors produced by pass  5 Test12= 6.28D-15 2.56D-09 XBig12= 4.66D-12 2.65D-07.
      4 vectors produced by pass  6 Test12= 6.28D-15 2.56D-09 XBig12= 4.09D-15 8.70D-09.
 InvSVY:  IOpt=1 It=  1 EMax= 1.78D-15
 Solved reduced A of dimension   198 with    33 vectors.
 End of Minotr F.D. properties file   721 does not exist.
 End of Minotr F.D. properties file   722 does not exist.
 End of Minotr F.D. properties file   788 does not exist.
 Calling FoFJK, ICntrl=    100127 FMM=F ISym2X=0 I1Cent= 0 IOpClX= 0 NMat=1 NMatS=1 NMatT=0.
 -------------------------------------------------------------------
 Center     Atomic                   Forces (Hartrees/Bohr)
 Number     Number              X              Y              Z
 -------------------------------------------------------------------
      1        6          -0.019644934    0.033893161   -0.005376288
      2        6           0.000860194   -0.003248421    0.006341896
      3        6           0.000301057    0.000686854    0.000964901
      4        8           0.058597634   -0.005036101    0.042605158
      5        8          -0.017136779    0.002656680   -0.016493615
      6        8          -0.004048820   -0.001904691    0.000527321
      7        1          -0.002262043    0.001202617   -0.002130118
      8        1          -0.002278711    0.002354827   -0.000762911
      9        1          -0.014308960   -0.029504880   -0.026362759
     10        1           0.000196936   -0.000124113    0.000492256
     11        1          -0.000425362   -0.000863366    0.000299323
     12        1           0.000149790   -0.000112565   -0.000105165
 -------------------------------------------------------------------
 Cartesian Forces:  Max     0.058597634 RMS     0.016053684
 IRC-IRC-IRC-IRC-IRC-IRC-IRC-IRC-IRC-IRC-IRC-IRC-IRC-IRC-IRC-IRC-IRC-IRC
 Pt  4 Step number   1 out of a maximum of 100
 Modified Bulirsch-Stoer Extrapolation Cycles:
    EPS =    0.000010000000000
      PEZero:  N= 2 I= 1 D=  8.60D-04 Err=  4.27D-05
      PEZero:  N= 3 I= 2 D=  8.60D-04 Err=  2.84D-05
      PEZero:  N= 3 I= 1 D=  1.72D-03 Err=  5.57D-08
 Maximum DWI energy   std dev =  0.000014466 at pt    19
 Maximum DWI gradient std dev =  0.002866325 at pt    35
 CORRECTOR INTEGRATION CONVERGENCE:
   Recorrection delta-x convergence threshold:    0.010000
   Delta-x Convergence Met
 Point Number:   4          Path Number:   1
   CHANGE IN THE REACTION COORDINATE =    0.16508
   NET REACTION COORDINATE UP TO THIS POINT =    0.66035
  # OF POINTS ALONG THE PATH =   4
  # OF STEPS =   1

 Calculating another point on the path.
 IRC-IRC-IRC-IRC-IRC-IRC-IRC-IRC-IRC-IRC-IRC-IRC-IRC-IRC-IRC-IRC-IRC-IRC
                          Input orientation:                          
 ---------------------------------------------------------------------
 Center     Atomic      Atomic             Coordinates (Angstroms)
 Number     Number       Type             X           Y           Z
 ---------------------------------------------------------------------
      1          6           0        0.319793   -0.509972   -0.867062
      2          6           0       -0.652321   -1.121568    0.104971
      3          6           0       -1.762525   -0.136880    0.443679
      4          8           0        1.035658    0.546860   -0.465266
      5          8           0        2.331029    0.014396    0.703453
      6          8           0       -1.775618    1.002976    0.023014
      7          1           0        2.987737    0.709006    0.511788
      8          1           0        0.751013   -1.139094   -1.654626
      9          1           0       -0.253110    0.585074   -1.088051
     10          1           0       -2.570317   -0.500936    1.105268
     11          1           0       -0.130621   -1.368141    1.043102
     12          1           0       -1.090706   -2.055135   -0.271662
 ---------------------------------------------------------------------
                    Distance matrix (angstroms):
                    1          2          3          4          5
     1  C    0.000000
     2  C    1.504627   0.000000
     3  C    2.488632   1.522132   0.000000
     4  O    1.338206   2.440921   3.020515   0.000000
     5  O    2.605100   3.247918   4.104577   1.824118   0.000000
     6  O    2.733495   2.404621   1.215073   2.889590   4.278415
     7  H    3.241150   4.094694   4.825469   2.188958   0.974928
     8  H    1.096359   2.250741   3.424207   2.082796   3.063906
     9  H    1.255460   2.120212   2.268425   1.431867   3.195768
    10  H    3.498986   2.250442   1.105787   4.070321   4.944716
    11  H    2.141974   1.101389   2.130357   2.702334   2.843676
    12  H    2.175210   1.097990   2.154705   3.365900   4.116076
                    6          7          8          9         10
     6  O    0.000000
     7  H    4.797381   0.000000
     8  H    3.713058   3.621016   0.000000
     9  H    1.930580   3.616342   2.074132   0.000000
    10  H    2.016079   5.719103   4.365260   3.370388   0.000000
    11  H    3.060848   3.784308   2.847363   2.893417   2.589985
    12  H    3.147695   4.988784   2.478639   2.887692   2.549651
                   11         12
    11  H    0.000000
    12  H    1.767011   0.000000
 Symmetry turned off by external request.
 Stoichiometry    C3H6O3
 Framework group  C1[X(C3H6O3)]
 Deg. of freedom    30
 Full point group                 C1      NOp   1
 Rotational constants (GHZ):           6.5415762           2.0607360           1.9178626
 Standard basis: 6-31+G(d) (6D, 7F)
   126 basis functions,   216 primitive gaussians,   126 cartesian basis functions
    24 alpha electrons       24 beta electrons
       nuclear repulsion energy       236.1871972764 Hartrees.
 NAtoms=   12 NActive=   12 NUniq=   12 SFac= 1.00D+00 NAtFMM=   60 NAOKFM=F Big=F
 Integral buffers will be    131072 words long.
 Raffenetti 2 integral format.
 Two-electron integral symmetry is turned off.
 One-electron integrals computed using PRISM.
 NBasis=   126 RedAO= T EigKep=  1.22D-04  NBF=   126
 NBsUse=   126 1.00D-06 EigRej= -1.00D+00 NBFU=   126
 Initial guess from the checkpoint file:  "/scratch/bell/zhao922/YARP/paper-example/KHP-network/pp_0/IRC-folder/Gau-70939.chk"
 B after Tr=    -0.000647   -0.000965   -0.001068
         Rot=    1.000000    0.000448   -0.000061   -0.000066 Ang=   0.05 deg.
 ExpMin= 4.38D-02 ExpMax= 5.48D+03 ExpMxC= 8.25D+02 IAcc=3 IRadAn=         5 AccDes= 0.00D+00
 Harris functional with IExCor=  402 and IRadAn=       5 diagonalized for initial guess.
 HarFok:  IExCor=  402 AccDes= 0.00D+00 IRadAn=         5 IDoV= 1 UseB2=F ITyADJ=14
 ICtDFT=  3500011 ScaDFX=  1.000000  1.000000  1.000000  1.000000
 FoFCou: FMM=F IPFlag=           0 FMFlag=      100000 FMFlg1=           0
         NFxFlg=           0 DoJE=T BraDBF=F KetDBF=T FulRan=T
         wScrn=  0.000000 ICntrl=       500 IOpCl=  0 I1Cent=   200000004 NGrid=           0
         NMat0=    1 NMatS0=      1 NMatT0=    0 NMatD0=    1 NMtDS0=    0 NMtDT0=    0
 Symmetry not used in FoFCou.
 Keep R1 ints in memory in canonical form, NReq=47237243.
 Requested convergence on RMS density matrix=1.00D-08 within 128 cycles.
 Requested convergence on MAX density matrix=1.00D-06.
 Requested convergence on             energy=1.00D-06.
 No special actions if energy rises.
 EnCoef did     6 forward-backward iterations
 SCF Done:  E(RB3LYP) =  -343.418507230     A.U. after   12 cycles
            NFock= 12  Conv=0.99D-08     -V/T= 2.0094
 DoSCS=F DFT=T ScalE2(SS,OS)=  1.000000  1.000000
 Range of M.O.s used for correlation:     1   126
 NBasis=   126 NAE=    24 NBE=    24 NFC=     0 NFV=     0
 NROrb=    126 NOA=    24 NOB=    24 NVA=   102 NVB=   102

 **** Warning!!: The largest alpha MO coefficient is  0.34178246D+02

 Symmetrizing basis deriv contribution to polar:
 IMax=3 JMax=2 DiffMx= 0.00D+00
 G2DrvN: will do    13 centers at a time, making    1 passes.
 Calling FoFCou, ICntrl=  3107 FMM=F I1Cent=   0 AccDes= 0.00D+00.
 End of G2Drv F.D. properties file   721 does not exist.
 End of G2Drv F.D. properties file   722 does not exist.
 End of G2Drv F.D. properties file   788 does not exist.
          IDoAtm=111111111111
          Differentiating once with respect to nuclear coordinates.
 Keep R1 ints in memory in canonical form, NReq=47193265.
          There are    39 degrees of freedom in the 1st order CPHF.  IDoFFX=6 NUNeed=     0.
     33 vectors produced by pass  0 Test12= 6.28D-15 2.56D-09 XBig12= 1.46D-01 1.30D-01.
 AX will form    33 AO Fock derivatives at one time.
     33 vectors produced by pass  1 Test12= 6.28D-15 2.56D-09 XBig12= 3.79D-02 6.70D-02.
     33 vectors produced by pass  2 Test12= 6.28D-15 2.56D-09 XBig12= 3.87D-04 3.02D-03.
     33 vectors produced by pass  3 Test12= 6.28D-15 2.56D-09 XBig12= 2.40D-06 2.24D-04.
     33 vectors produced by pass  4 Test12= 6.28D-15 2.56D-09 XBig12= 3.95D-09 7.98D-06.
     29 vectors produced by pass  5 Test12= 6.28D-15 2.56D-09 XBig12= 4.39D-12 2.89D-07.
      4 vectors produced by pass  6 Test12= 6.28D-15 2.56D-09 XBig12= 4.22D-15 9.30D-09.
 InvSVY:  IOpt=1 It=  1 EMax= 2.22D-15
 Solved reduced A of dimension   198 with    33 vectors.
 End of Minotr F.D. properties file   721 does not exist.
 End of Minotr F.D. properties file   722 does not exist.
 End of Minotr F.D. properties file   788 does not exist.
 Calling FoFJK, ICntrl=    100127 FMM=F ISym2X=0 I1Cent= 0 IOpClX= 0 NMat=1 NMatS=1 NMatT=0.
 -------------------------------------------------------------------
 Center     Atomic                   Forces (Hartrees/Bohr)
 Number     Number              X              Y              Z
 -------------------------------------------------------------------
      1        6          -0.022721023    0.036604171   -0.007853226
      2        6           0.000996670   -0.003461492    0.007532511
      3        6           0.000411585    0.000723612    0.001259544
      4        8           0.066130858   -0.005133401    0.048385194
      5        8          -0.021316854    0.003371260   -0.019842757
      6        8          -0.005011187   -0.002144461    0.000785185
      7        1          -0.002759733    0.001433455   -0.002588017
      8        1          -0.002044610    0.002241834   -0.000299550
      9        1          -0.013595167   -0.032301859   -0.028223139
     10        1           0.000214610   -0.000164143    0.000609933
     11        1          -0.000490773   -0.001074438    0.000389131
     12        1           0.000185624   -0.000094538   -0.000154809
 -------------------------------------------------------------------
 Cartesian Forces:  Max     0.066130858 RMS     0.018006858
 IRC-IRC-IRC-IRC-IRC-IRC-IRC-IRC-IRC-IRC-IRC-IRC-IRC-IRC-IRC-IRC-IRC-IRC
 Pt  5 Step number   1 out of a maximum of 100
 Modified Bulirsch-Stoer Extrapolation Cycles:
    EPS =    0.000010000000000
      PEZero:  N= 2 I= 1 D=  8.60D-04 Err=  4.18D-05
      PEZero:  N= 3 I= 2 D=  8.60D-04 Err=  2.78D-05
      PEZero:  N= 3 I= 1 D=  1.72D-03 Err=  5.24D-08
 Maximum DWI energy   std dev =  0.000013885 at pt    67
 Maximum DWI gradient std dev =  0.001905242 at pt    35
 CORRECTOR INTEGRATION CONVERGENCE:
   Recorrection delta-x convergence threshold:    0.010000
   Delta-x Convergence Met
 Point Number:   5          Path Number:   1
   CHANGE IN THE REACTION COORDINATE =    0.16508
   NET REACTION COORDINATE UP TO THIS POINT =    0.82543
  # OF POINTS ALONG THE PATH =   5
  # OF STEPS =   1

 Calculating another point on the path.
 IRC-IRC-IRC-IRC-IRC-IRC-IRC-IRC-IRC-IRC-IRC-IRC-IRC-IRC-IRC-IRC-IRC-IRC
                          Input orientation:                          
 ---------------------------------------------------------------------
 Center     Atomic      Atomic             Coordinates (Angstroms)
 Number     Number       Type             X           Y           Z
 ---------------------------------------------------------------------
      1          6           0        0.316506   -0.504857   -0.868312
      2          6           0       -0.652174   -1.122048    0.106079
      3          6           0       -1.762460   -0.136780    0.443875
      4          8           0        1.042802    0.546334   -0.460019
      5          8           0        2.328607    0.014780    0.701231
      6          8           0       -1.776183    1.002745    0.023109
      7          1           0        2.982807    0.711523    0.507186
      8          1           0        0.748023   -1.135683   -1.654649
      9          1           0       -0.274383    0.531020   -1.135085
     10          1           0       -2.569951   -0.501234    1.106349
     11          1           0       -0.131463   -1.370059    1.043799
     12          1           0       -1.090379   -2.055264   -0.271955
 ---------------------------------------------------------------------
                    Distance matrix (angstroms):
                    1          2          3          4          5
     1  C    0.000000
     2  C    1.506222   0.000000
     3  C    2.485844   1.522365   0.000000
     4  O    1.341347   2.444771   3.025420   0.000000
     5  O    2.604234   3.245248   4.101955   1.812276   0.000000
     6  O    2.728891   2.405207   1.214804   2.896274   4.276123
     7  H    3.237396   4.090960   4.820912   2.174027   0.975234
     8  H    1.096574   2.249645   3.421132   2.084039   3.061370
     9  H    1.222031   2.101392   2.270121   1.480177   3.227091
    10  H    3.497275   2.250293   1.106227   4.074664   4.942293
    11  H    2.146025   1.100894   2.130972   2.704243   2.843779
    12  H    2.176863   1.098102   2.155154   3.369591   4.113592
                    6          7          8          9         10
     6  O    0.000000
     7  H    4.792403   0.000000
     8  H    3.709362   3.616623   0.000000
     9  H    1.954314   3.652248   2.023156   0.000000
    10  H    2.016290   5.715146   4.362865   3.370342   0.000000
    11  H    3.062207   3.784127   2.847816   2.895180   2.589400
    12  H    3.147826   4.985281   2.477337   2.845999   2.550267
                   11         12
    11  H    0.000000
    12  H    1.766419   0.000000
 Symmetry turned off by external request.
 Stoichiometry    C3H6O3
 Framework group  C1[X(C3H6O3)]
 Deg. of freedom    30
 Full point group                 C1      NOp   1
 Rotational constants (GHZ):           6.5508885           2.0604334           1.9185359
 Standard basis: 6-31+G(d) (6D, 7F)
   126 basis functions,   216 primitive gaussians,   126 cartesian basis functions
    24 alpha electrons       24 beta electrons
       nuclear repulsion energy       236.1991656947 Hartrees.
 NAtoms=   12 NActive=   12 NUniq=   12 SFac= 1.00D+00 NAtFMM=   60 NAOKFM=F Big=F
 Integral buffers will be    131072 words long.
 Raffenetti 2 integral format.
 Two-electron integral symmetry is turned off.
 One-electron integrals computed using PRISM.
 NBasis=   126 RedAO= T EigKep=  1.22D-04  NBF=   126
 NBsUse=   126 1.00D-06 EigRej= -1.00D+00 NBFU=   126
 Initial guess from the checkpoint file:  "/scratch/bell/zhao922/YARP/paper-example/KHP-network/pp_0/IRC-folder/Gau-70939.chk"
 B after Tr=    -0.000582   -0.000979   -0.001048
         Rot=    1.000000    0.000460   -0.000053   -0.000065 Ang=   0.05 deg.
 ExpMin= 4.38D-02 ExpMax= 5.48D+03 ExpMxC= 8.25D+02 IAcc=3 IRadAn=         5 AccDes= 0.00D+00
 Harris functional with IExCor=  402 and IRadAn=       5 diagonalized for initial guess.
 HarFok:  IExCor=  402 AccDes= 0.00D+00 IRadAn=         5 IDoV= 1 UseB2=F ITyADJ=14
 ICtDFT=  3500011 ScaDFX=  1.000000  1.000000  1.000000  1.000000
 FoFCou: FMM=F IPFlag=           0 FMFlag=      100000 FMFlg1=           0
         NFxFlg=           0 DoJE=T BraDBF=F KetDBF=T FulRan=T
         wScrn=  0.000000 ICntrl=       500 IOpCl=  0 I1Cent=   200000004 NGrid=           0
         NMat0=    1 NMatS0=      1 NMatT0=    0 NMatD0=    1 NMtDS0=    0 NMtDT0=    0
 Symmetry not used in FoFCou.
 Keep R1 ints in memory in canonical form, NReq=47237243.
 Requested convergence on RMS density matrix=1.00D-08 within 128 cycles.
 Requested convergence on MAX density matrix=1.00D-06.
 Requested convergence on             energy=1.00D-06.
 No special actions if energy rises.
 EnCoef did     6 forward-backward iterations
 SCF Done:  E(RB3LYP) =  -343.427156619     A.U. after   12 cycles
            NFock= 12  Conv=0.63D-08     -V/T= 2.0094
 DoSCS=F DFT=T ScalE2(SS,OS)=  1.000000  1.000000
 Range of M.O.s used for correlation:     1   126
 NBasis=   126 NAE=    24 NBE=    24 NFC=     0 NFV=     0
 NROrb=    126 NOA=    24 NOB=    24 NVA=   102 NVB=   102

 **** Warning!!: The largest alpha MO coefficient is  0.33212139D+02

 Symmetrizing basis deriv contribution to polar:
 IMax=3 JMax=2 DiffMx= 0.00D+00
 G2DrvN: will do    13 centers at a time, making    1 passes.
 Calling FoFCou, ICntrl=  3107 FMM=F I1Cent=   0 AccDes= 0.00D+00.
 End of G2Drv F.D. properties file   721 does not exist.
 End of G2Drv F.D. properties file   722 does not exist.
 End of G2Drv F.D. properties file   788 does not exist.
          IDoAtm=111111111111
          Differentiating once with respect to nuclear coordinates.
 Keep R1 ints in memory in canonical form, NReq=47193265.
          There are    39 degrees of freedom in the 1st order CPHF.  IDoFFX=6 NUNeed=     0.
     33 vectors produced by pass  0 Test12= 6.28D-15 2.56D-09 XBig12= 1.44D-01 1.04D-01.
 AX will form    33 AO Fock derivatives at one time.
     33 vectors produced by pass  1 Test12= 6.28D-15 2.56D-09 XBig12= 3.98D-02 6.24D-02.
     33 vectors produced by pass  2 Test12= 6.28D-15 2.56D-09 XBig12= 4.30D-04 3.42D-03.
     33 vectors produced by pass  3 Test12= 6.28D-15 2.56D-09 XBig12= 2.68D-06 2.70D-04.
     33 vectors produced by pass  4 Test12= 6.28D-15 2.56D-09 XBig12= 4.19D-09 1.08D-05.
     28 vectors produced by pass  5 Test12= 6.28D-15 2.56D-09 XBig12= 4.82D-12 3.24D-07.
      4 vectors produced by pass  6 Test12= 6.28D-15 2.56D-09 XBig12= 4.41D-15 8.15D-09.
 InvSVY:  IOpt=1 It=  1 EMax= 2.00D-15
 Solved reduced A of dimension   197 with    33 vectors.
 End of Minotr F.D. properties file   721 does not exist.
 End of Minotr F.D. properties file   722 does not exist.
 End of Minotr F.D. properties file   788 does not exist.
 Calling FoFJK, ICntrl=    100127 FMM=F ISym2X=0 I1Cent= 0 IOpClX= 0 NMat=1 NMatS=1 NMatT=0.
 -------------------------------------------------------------------
 Center     Atomic                   Forces (Hartrees/Bohr)
 Number     Number              X              Y              Z
 -------------------------------------------------------------------
      1        6          -0.024344723    0.036437210   -0.010161190
      2        6           0.001130196   -0.003385062    0.008384556
      3        6           0.000521910    0.000697533    0.001579548
      4        8           0.070618259   -0.004877744    0.052072910
      5        8          -0.025244386    0.003973970   -0.022832914
      6        8          -0.005821858   -0.002280162    0.001035061
      7        1          -0.003210191    0.001605376   -0.002979922
      8        1          -0.001497244    0.001807404    0.000351512
      9        1          -0.012064542   -0.032486133   -0.028403551
     10        1           0.000221704   -0.000191881    0.000694912
     11        1          -0.000518081   -0.001243281    0.000461446
     12        1           0.000208955   -0.000057230   -0.000202370
 -------------------------------------------------------------------
 Cartesian Forces:  Max     0.070618259 RMS     0.019064594
 IRC-IRC-IRC-IRC-IRC-IRC-IRC-IRC-IRC-IRC-IRC-IRC-IRC-IRC-IRC-IRC-IRC-IRC
 Pt  6 Step number   1 out of a maximum of 100
 Modified Bulirsch-Stoer Extrapolation Cycles:
    EPS =    0.000010000000000
      PEZero:  N= 2 I= 1 D=  8.60D-04 Err=  3.75D-05
      PEZero:  N= 3 I= 2 D=  8.60D-04 Err=  2.50D-05
      PEZero:  N= 3 I= 1 D=  1.72D-03 Err=  4.42D-08
 Maximum DWI energy   std dev =  0.000012574 at pt    45
 Maximum DWI gradient std dev =  0.001418782 at pt    47
 CORRECTOR INTEGRATION CONVERGENCE:
   Recorrection delta-x convergence threshold:    0.010000
   Delta-x Convergence Met
 Point Number:   6          Path Number:   1
   CHANGE IN THE REACTION COORDINATE =    0.16507
   NET REACTION COORDINATE UP TO THIS POINT =    0.99050
  # OF POINTS ALONG THE PATH =   6
  # OF STEPS =   1

 Calculating another point on the path.
 IRC-IRC-IRC-IRC-IRC-IRC-IRC-IRC-IRC-IRC-IRC-IRC-IRC-IRC-IRC-IRC-IRC-IRC
                          Input orientation:                          
 ---------------------------------------------------------------------
 Center     Atomic      Atomic             Coordinates (Angstroms)
 Number     Number       Type             X           Y           Z
 ---------------------------------------------------------------------
      1          6           0        0.313057   -0.499877   -0.869875
      2          6           0       -0.652006   -1.122502    0.107295
      3          6           0       -1.762380   -0.136686    0.444120
      4          8           0        1.050364    0.545839   -0.454417
      5          8           0        2.325754    0.015226    0.698683
      6          8           0       -1.776832    1.002501    0.023231
      7          1           0        2.977108    0.714311    0.501929
      8          1           0        0.746136   -1.133190   -1.653455
      9          1           0       -0.292979    0.477977   -1.181840
     10          1           0       -2.569576   -0.501567    1.107556
     11          1           0       -0.132327   -1.372241    1.044606
     12          1           0       -1.090023   -2.055318   -0.272324
 ---------------------------------------------------------------------
                    Distance matrix (angstroms):
                    1          2          3          4          5
     1  C    0.000000
     2  C    1.507936   0.000000
     3  C    2.483129   1.522569   0.000000
     4  O    1.345269   2.448866   3.030633   0.000000
     5  O    2.603201   3.242101   4.098867   1.799392   0.000000
     6  O    2.724410   2.405814   1.214538   2.903399   4.273425
     7  H    3.233151   4.086574   4.815629   2.157620   0.975549
     8  H    1.096650   2.248368   3.418406   2.085518   3.057222
     9  H    1.191973   2.086218   2.276114   1.529157   3.257034
    10  H    3.495684   2.250146   1.106729   4.079312   4.939484
    11  H    2.150494   1.100449   2.131725   2.706448   2.843745
    12  H    2.178325   1.098233   2.155575   3.373490   4.110662
                    6          7          8          9         10
     6  O    0.000000
     7  H    4.786664   0.000000
     8  H    3.706457   3.610565   0.000000
     9  H    1.982206   3.685702   1.974346   0.000000
    10  H    2.016537   5.710591   4.360743   3.373978   0.000000
    11  H    3.063822   3.783753   2.847522   2.899341   2.588864
    12  H    3.147907   4.981152   2.475747   2.807149   2.550939
                   11         12
    11  H    0.000000
    12  H    1.765809   0.000000
 Symmetry turned off by external request.
 Stoichiometry    C3H6O3
 Framework group  C1[X(C3H6O3)]
 Deg. of freedom    30
 Full point group                 C1      NOp   1
 Rotational constants (GHZ):           6.5595579           2.0603112           1.9192529
 Standard basis: 6-31+G(d) (6D, 7F)
   126 basis functions,   216 primitive gaussians,   126 cartesian basis functions
    24 alpha electrons       24 beta electrons
       nuclear repulsion energy       236.2060726247 Hartrees.
 NAtoms=   12 NActive=   12 NUniq=   12 SFac= 1.00D+00 NAtFMM=   60 NAOKFM=F Big=F
 Integral buffers will be    131072 words long.
 Raffenetti 2 integral format.
 Two-electron integral symmetry is turned off.
 One-electron integrals computed using PRISM.
 NBasis=   126 RedAO= T EigKep=  1.22D-04  NBF=   126
 NBsUse=   126 1.00D-06 EigRej= -1.00D+00 NBFU=   126
 Initial guess from the checkpoint file:  "/scratch/bell/zhao922/YARP/paper-example/KHP-network/pp_0/IRC-folder/Gau-70939.chk"
 B after Tr=    -0.000523   -0.000975   -0.001031
         Rot=    1.000000    0.000471   -0.000046   -0.000066 Ang=   0.05 deg.
 ExpMin= 4.38D-02 ExpMax= 5.48D+03 ExpMxC= 8.25D+02 IAcc=3 IRadAn=         5 AccDes= 0.00D+00
 Harris functional with IExCor=  402 and IRadAn=       5 diagonalized for initial guess.
 HarFok:  IExCor=  402 AccDes= 0.00D+00 IRadAn=         5 IDoV= 1 UseB2=F ITyADJ=14
 ICtDFT=  3500011 ScaDFX=  1.000000  1.000000  1.000000  1.000000
 FoFCou: FMM=F IPFlag=           0 FMFlag=      100000 FMFlg1=           0
         NFxFlg=           0 DoJE=T BraDBF=F KetDBF=T FulRan=T
         wScrn=  0.000000 ICntrl=       500 IOpCl=  0 I1Cent=   200000004 NGrid=           0
         NMat0=    1 NMatS0=      1 NMatT0=    0 NMatD0=    1 NMtDS0=    0 NMtDT0=    0
 Symmetry not used in FoFCou.
 Keep R1 ints in memory in canonical form, NReq=47237243.
 Requested convergence on RMS density matrix=1.00D-08 within 128 cycles.
 Requested convergence on MAX density matrix=1.00D-06.
 Requested convergence on             energy=1.00D-06.
 No special actions if energy rises.
 EnCoef did     5 forward-backward iterations
 SCF Done:  E(RB3LYP) =  -343.435698427     A.U. after   12 cycles
[...]
  10                   -0.55808   1.03759  -0.14346  -1.36448   1.05514
  11                   -0.55764   1.03799  -0.14377  -1.36477   1.05504
  12                   -0.55704   1.03851  -0.14418  -1.36519   1.05485
  13                   -0.55624   1.03919  -0.14466  -1.36577   1.05452
  14                   -0.55524   1.04004  -0.14521  -1.36650   1.05403
  15                   -0.55401   1.04109  -0.14579  -1.36735   1.05336
  16                   -0.55254   1.04234  -0.14635  -1.36828   1.05251
  17                   -0.55080   1.04384  -0.14686  -1.36924   1.05148
  18                   -0.54877   1.04564  -0.14726  -1.37019   1.05026
  19                   -0.54641   1.04783  -0.14748  -1.37104   1.04885
  20                   -0.54371   1.05049  -0.14742  -1.37171   1.04727
  21                   -0.54065   1.05370  -0.14697  -1.37209   1.04556
  22                   -0.53728   1.05750  -0.14604  -1.37206   1.04379
  23                   -0.53368   1.06182  -0.14455  -1.37150   1.04200
  24                   -0.52993   1.06652  -0.14250  -1.37039   1.04028
  25                   -0.52614   1.07139  -0.13998  -1.36874   1.03869
  26                   -0.52237   1.07618  -0.13720  -1.36673   1.03734
  27                   -0.51870   1.08064  -0.13446  -1.36460   1.03634
  28                   -0.51523   1.08460  -0.13205  -1.36261   1.03579
  29                   -0.51206   1.08796  -0.13014  -1.36099   1.03567
  30                   -0.50929   1.09076  -0.12871  -1.35977   1.03592
  31                   -0.50698   1.09307  -0.12766  -1.35894   1.03641
  32                   -0.50512   1.09497  -0.12690  -1.35842   1.03703
  33                   -0.50369   1.09652  -0.12636  -1.35817   1.03769
  34                   -0.50262   1.09777  -0.12600  -1.35814   1.03835
  35                   -0.50184   1.09875  -0.12580  -1.35830   1.03896
  36                   -0.50127   1.09951  -0.12576  -1.35861   1.03950
  37                   -0.50087   1.10011  -0.12586  -1.35904   1.03996
  38                   -0.50058   1.10058  -0.12608  -1.35959   1.04034
  39                   -0.50039   1.10098  -0.12640  -1.36023   1.04064
  40                   -0.50028   1.10136  -0.12680  -1.36095   1.04089
  41                   -0.50025   1.10178  -0.12728  -1.36180   1.04112
  42                   -0.50026   1.10225  -0.12781  -1.36271   1.04137
  43                   -0.50035   1.10282  -0.12841  -1.36378   1.04167
  44                   -0.50049   1.10351  -0.12909  -1.36503   1.04205
  45                   -0.50069   1.10433  -0.12983  -1.36648   1.04253
  46                   -0.50094   1.10528  -0.13062  -1.36815   1.04311
  47                   -0.50123   1.10635  -0.13146  -1.37007   1.04381
  48                   -0.50157   1.10756  -0.13233  -1.37225   1.04461
  49                   -0.50192   1.10889  -0.13317  -1.37470   1.04551
  50                   -0.50228   1.11033  -0.13395  -1.37740   1.04647
  51                   -0.50263   1.11189  -0.13456  -1.38028   1.04740
  52                   -0.50296   1.11355  -0.13489  -1.38323   1.04821
  53                   -0.50328   1.11531  -0.13484  -1.38607   1.04877
  54                   -0.50362   1.11717  -0.13435  -1.38865   1.04897
  55                   -0.50402   1.11915  -0.13342  -1.39080   1.04877
  56                   -0.50451   1.12126  -0.13214  -1.39246   1.04818
  57                   -0.50515   1.12356  -0.13065  -1.39362   1.04728
  58                   -0.50596   1.12609  -0.12916  -1.39434   1.04622
  59                   -0.50697   1.12894  -0.12786  -1.39471   1.04515
  60                   -0.50822   1.13220  -0.12693  -1.39487   1.04425
  61                   -0.50970   1.13594  -0.12649  -1.39494   1.04369
  62                   -0.51142   1.14023  -0.12652  -1.39504   1.04358
  63                   -0.51332   1.14504  -0.12679  -1.39518   1.04391
  64                   -0.51531   1.15035  -0.12684  -1.39519   1.04453
  65                   -0.51728   1.15627  -0.12617  -1.39473   1.04522
  66                   -0.51906   1.16318  -0.12432  -1.39337   1.04578
  67                   -0.52040   1.17180  -0.12087  -1.39063   1.04605
  68                   -0.52081   1.18336  -0.11535  -1.38615   1.04581
  69                   -0.51942   1.19942  -0.10748  -1.38015   1.04472
  70                   -0.51543   1.22008  -0.09810  -1.37424   1.04260
  71                   -0.50925   1.24283  -0.08883  -1.37002   1.03981
  72                   -0.50177   1.26564  -0.08022  -1.36727   1.03684
  73                   -0.49350   1.28793  -0.07210  -1.36520   1.03388
  74                   -0.48461   1.30956  -0.06435  -1.36338   1.03100
  75                   -0.47521   1.33051  -0.05695  -1.36161   1.02822
  76                   -0.46533   1.35071  -0.05000  -1.35987   1.02557
  77                   -0.45502   1.37009  -0.04355  -1.35810   1.02311
  78                   -0.44433   1.38860  -0.03767  -1.35622   1.02094
  79                   -0.43334   1.40608  -0.03240  -1.35403   1.01921
  80                   -0.42225   1.42227  -0.02779  -1.35128   1.01814
  81                   -0.41137   1.43675  -0.02387  -1.34764   1.01801
                          X12       Y12       Z12
   1                   -1.07821  -2.06586  -0.25339
   2                   -1.07774  -2.06562  -0.25722
   3                   -1.07702  -2.06561  -0.26064
   4                   -1.07622  -2.06576  -0.26355
   5                   -1.07552  -2.06594  -0.26595
   6                   -1.07494  -2.06590  -0.26793
   7                   -1.07449  -2.06555  -0.26938
   8                   -1.07428  -2.06523  -0.27019
   9                   -1.07418  -2.06494  -0.27080
  10                   -1.07420  -2.06464  -0.27138
  11                   -1.07434  -2.06433  -0.27196
  12                   -1.07464  -2.06398  -0.27259
  13                   -1.07515  -2.06359  -0.27327
  14                   -1.07588  -2.06315  -0.27401
  15                   -1.07686  -2.06267  -0.27480
  16                   -1.07808  -2.06214  -0.27565
  17                   -1.07953  -2.06158  -0.27652
  18                   -1.08120  -2.06100  -0.27740
  19                   -1.08305  -2.06039  -0.27824
  20                   -1.08502  -2.05977  -0.27896
  21                   -1.08702  -2.05913  -0.27946
  22                   -1.08894  -2.05850  -0.27960
  23                   -1.09066  -2.05787  -0.27928
  24                   -1.09213  -2.05723  -0.27843
  25                   -1.09333  -2.05659  -0.27706
  26                   -1.09427  -2.05594  -0.27528
  27                   -1.09497  -2.05530  -0.27330
  28                   -1.09543  -2.05470  -0.27142
  29                   -1.09563  -2.05420  -0.26991
  30                   -1.09557  -2.05380  -0.26893
  31                   -1.09530  -2.05350  -0.26846
  32                   -1.09489  -2.05328  -0.26843
  33                   -1.09440  -2.05314  -0.26868
  34                   -1.09390  -2.05306  -0.26910
  35                   -1.09343  -2.05305  -0.26956
  36                   -1.09301  -2.05309  -0.27000
  37                   -1.09266  -2.05319  -0.27036
  38                   -1.09238  -2.05333  -0.27064
  39                   -1.09216  -2.05352  -0.27082
  40                   -1.09198  -2.05374  -0.27095
  41                   -1.09181  -2.05398  -0.27103
  42                   -1.09164  -2.05423  -0.27110
  43                   -1.09145  -2.05449  -0.27117
  44                   -1.09124  -2.05473  -0.27128
  45                   -1.09099  -2.05495  -0.27144
  46                   -1.09070  -2.05513  -0.27166
  47                   -1.09038  -2.05526  -0.27196
  48                   -1.09002  -2.05532  -0.27233
  49                   -1.08965  -2.05526  -0.27277
  50                   -1.08928  -2.05507  -0.27328
  51                   -1.08895  -2.05467  -0.27385
  52                   -1.08868  -2.05402  -0.27445
  53                   -1.08852  -2.05305  -0.27505
  54                   -1.08846  -2.05172  -0.27564
  55                   -1.08851  -2.05003  -0.27621
  56                   -1.08861  -2.04797  -0.27678
  57                   -1.08871  -2.04554  -0.27742
  58                   -1.08872  -2.04271  -0.27820
  59                   -1.08853  -2.03945  -0.27924
  60                   -1.08804  -2.03568  -0.28067
  61                   -1.08712  -2.03134  -0.28261
  62                   -1.08567  -2.02640  -0.28513
  63                   -1.08365  -2.02096  -0.28807
  64                   -1.08115  -2.01525  -0.29106
  65                   -1.07827  -2.00951  -0.29362
  66                   -1.07506  -2.00391  -0.29530
  67                   -1.07150  -1.99856  -0.29570
  68                   -1.06759  -1.99347  -0.29451
  69                   -1.06355  -1.98855  -0.29183
  70                   -1.06011  -1.98360  -0.28879
  71                   -1.05766  -1.97849  -0.28671
  72                   -1.05591  -1.97324  -0.28558
  73                   -1.05447  -1.96790  -0.28493
  74                   -1.05320  -1.96253  -0.28450
  75                   -1.05205  -1.95711  -0.28418
  76                   -1.05106  -1.95166  -0.28398
  77                   -1.05022  -1.94615  -0.28387
  78                   -1.04951  -1.94061  -0.28379
  79                   -1.04883  -1.93504  -0.28359
  80                   -1.04805  -1.92955  -0.28305
  81                   -1.04696  -1.92427  -0.28186
 --------------------------------------------------------------------------
 
 Total number of points:                   80
 Total number of gradient calculations:    81
 Total number of Hessian calculations:     81
 IRC-IRC-IRC-IRC-IRC-IRC-IRC-IRC-IRC-IRC-IRC-IRC-IRC-IRC-IRC-IRC-IRC-IRC
                          Input orientation:                          
 ---------------------------------------------------------------------
 Center     Atomic      Atomic             Coordinates (Angstroms)
 Number     Number       Type             X           Y           Z
 ---------------------------------------------------------------------
      1          6           0        0.350086   -0.557012   -0.879857
      2          6           0       -0.644852   -1.122907    0.105976
      3          6           0       -1.767347   -0.136319    0.424002
      4          8           0        0.820447    0.554037   -0.775738
      5          8           0        2.406210    0.040592    0.865258
      6          8           0       -1.794311    1.016580    0.065826
      7          1           0        3.240896    0.510223    1.007038
      8          1           0        0.616951   -1.192104   -1.746854
      9          1           0        1.763616    0.721753    0.607750
     10          1           0       -2.592088   -0.563847    1.034063
     11          1           0       -0.130306   -1.355572    1.051880
     12          1           0       -1.078212   -2.065866   -0.253384
 ---------------------------------------------------------------------
                    Distance matrix (angstroms):
                    1          2          3          4          5
     1  C    0.000000
     2  C    1.510631   0.000000
     3  C    2.522014   1.527905   0.000000
     4  O    1.210995   2.395133   2.934731   0.000000
     5  O    2.762282   3.352494   4.200546   2.339047   0.000000
     6  O    2.822933   2.429048   1.207557   2.785523   4.385889
     7  H    3.613329   4.310228   5.083350   3.006457   0.968172
     8  H    1.107358   2.242747   3.392960   2.008354   3.397664
     9  H    2.417908   3.074941   3.638372   1.682776   0.971194
    10  H    3.509918   2.228367   1.111373   4.021248   5.037541
    11  H    2.144780   1.101647   2.135583   2.809043   2.901381
    12  H    2.170056   1.098231   2.157987   3.277445   4.222525
                    6          7          8          9         10
     6  O    0.000000
     7  H    5.147386   0.000000
     8  H    3.738754   4.167365   0.000000
     9  H    3.611017   1.544841   3.243740   0.000000
    10  H    2.017840   5.931109   4.292567   4.561432   0.000000
    11  H    3.060771   3.853337   2.901384   2.845956   2.586023
    12  H    3.180592   5.184553   2.422290   4.072880   2.491064
                   11         12
    11  H    0.000000
    12  H    1.762600   0.000000
 Symmetry turned off by external request.
 Stoichiometry    C3H6O3
 Framework group  C1[X(C3H6O3)]
 Deg. of freedom    30
 Full point group                 C1      NOp   1
 Rotational constants (GHZ):           5.6990998           1.9363828           1.8681914

 **********************************************************************

            Population analysis using the SCF Density.

 **********************************************************************

 Alpha  occ. eigenvalues --  -19.17994 -19.17724 -19.14209 -10.30855 -10.30169
 Alpha  occ. eigenvalues --  -10.23083  -1.08320  -1.07071  -0.99955  -0.80035
 Alpha  occ. eigenvalues --   -0.64891  -0.58085  -0.53750  -0.51894  -0.49370
 Alpha  occ. eigenvalues --   -0.46287  -0.45893  -0.44004  -0.39788  -0.38459
 Alpha  occ. eigenvalues --   -0.37681  -0.30057  -0.29274  -0.26791
 Alpha virt. eigenvalues --   -0.05884  -0.05087  -0.00020   0.01886   0.02594
 Alpha virt. eigenvalues --    0.03520   0.05572   0.05808   0.07402   0.08479
 Alpha virt. eigenvalues --    0.08858   0.11378   0.12432   0.13146   0.15680
 Alpha virt. eigenvalues --    0.17064   0.17279   0.19578   0.21095   0.22017
 Alpha virt. eigenvalues --    0.22680   0.22883   0.24355   0.24847   0.26255
 Alpha virt. eigenvalues --    0.28355   0.29685   0.30116   0.31874   0.32443
 Alpha virt. eigenvalues --    0.34039   0.34563   0.36646   0.40895   0.43139
 Alpha virt. eigenvalues --    0.46729   0.63491   0.64013   0.66535   0.68920
 Alpha virt. eigenvalues --    0.70421   0.74517   0.77289   0.79407   0.84808
 Alpha virt. eigenvalues --    0.92049   0.93454   0.97641   1.00614   1.05205
 Alpha virt. eigenvalues --    1.06040   1.07475   1.11443   1.16100   1.18314
 Alpha virt. eigenvalues --    1.20609   1.21644   1.23403   1.26592   1.27543
 Alpha virt. eigenvalues --    1.30646   1.34369   1.42810   1.43302   1.51285
 Alpha virt. eigenvalues --    1.51740   1.52779   1.57589   1.59175   1.66746
 Alpha virt. eigenvalues --    1.73585   1.74203   1.75836   1.77746   1.78432
 Alpha virt. eigenvalues --    1.82834   1.84279   1.90193   1.95031   2.04000
 Alpha virt. eigenvalues --    2.04688   2.07843   2.14345   2.27781   2.30871
 Alpha virt. eigenvalues --    2.37524   2.40306   2.47145   2.56223   2.56363
 Alpha virt. eigenvalues --    2.60913   2.71249   2.83592   2.92291   3.03412
 Alpha virt. eigenvalues --    3.05568   3.97717   4.12077   4.17122   4.21039
 Alpha virt. eigenvalues --    4.37959   4.50165
          Condensed to atoms (all electrons):
               1          2          3          4          5          6
     1  C    4.996435  -0.183180   0.089499   0.475226  -0.028137   0.083772
     2  C   -0.183180   6.931170  -0.295151  -0.141169   0.025567  -0.188550
     3  C    0.089499  -0.295151   5.128610   0.019821   0.006558   0.489942
     4  O    0.475226  -0.141169   0.019821   8.130137  -0.074751  -0.029344
     5  O   -0.028137   0.025567   0.006558  -0.074751   8.651105  -0.000608
     6  O    0.083772  -0.188550   0.489942  -0.029344  -0.000608   8.021736
     7  H    0.003226   0.000429  -0.001609   0.001844   0.201219   0.000098
     8  H    0.371097  -0.107402   0.017658  -0.045619  -0.003494  -0.002302
     9  H   -0.001187  -0.005791  -0.001928   0.020001   0.195856   0.000091
    10  H    0.037728  -0.217758   0.449121  -0.000975   0.000021  -0.061186
    11  H   -0.000635   0.359786  -0.041553  -0.008627   0.000099   0.001297
    12  H   -0.048400   0.336764   0.006606   0.009952  -0.000046  -0.000718
               7          8          9         10         11         12
     1  C    0.003226   0.371097  -0.001187   0.037728  -0.000635  -0.048400
     2  C    0.000429  -0.107402  -0.005791  -0.217758   0.359786   0.336764
     3  C   -0.001609   0.017658  -0.001928   0.449121  -0.041553   0.006606
     4  O    0.001844  -0.045619   0.020001  -0.000975  -0.008627   0.009952
     5  O    0.201219  -0.003494   0.195856   0.000021   0.000099  -0.000046
     6  O    0.000098  -0.002302   0.000091  -0.061186   0.001297  -0.000718
     7  H    0.331916   0.000056  -0.010244   0.000000  -0.000050   0.000000
     8  H    0.000056   0.594030   0.001237  -0.000170   0.001921   0.003058
     9  H   -0.010244   0.001237   0.299804  -0.000013   0.000186  -0.000000
    10  H    0.000000  -0.000170  -0.000013   0.623597   0.000915   0.001397
    11  H   -0.000050   0.001921   0.000186   0.000915   0.427355  -0.024369
    12  H    0.000000   0.003058  -0.000000   0.001397  -0.024369   0.489938
 Mulliken charges:
               1
     1  C    0.204557
     2  C   -0.514715
     3  C    0.132427
     4  O   -0.356498
     5  O   -0.973390
     6  O   -0.314228
     7  H    0.473115
     8  H    0.169929
     9  H    0.501988
    10  H    0.167322
    11  H    0.283674
    12  H    0.225817
 Sum of Mulliken charges =  -0.00000
 Mulliken charges with hydrogens summed into heavy atoms:
               1
     1  C    0.374487
     2  C   -0.005224
     3  C    0.299750
     4  O   -0.356498
     5  O    0.001713
     6  O   -0.314228
 APT charges:
               1
     1  C   -0.203117
     2  C   -0.734654
     3  C   -0.350514
     4  O   -0.343130
     5  O   -1.260982
     6  O   -0.324813
     7  H    0.870994
     8  H    0.485043
     9  H    0.360240
    10  H    0.536959
    11  H    0.432526
    12  H    0.531448
 Sum of APT charges =  -0.00000
 APT charges with hydrogens summed into heavy atoms:
               1
     1  C    0.281926
     2  C    0.229319
     3  C    0.186444
     4  O   -0.343130
     5  O   -0.029748
     6  O   -0.324813
 Electronic spatial extent (au):  <R**2>=            697.9991
 Charge=             -0.0000 electrons
 Dipole moment (field-independent basis, Debye):
    X=             -0.6782    Y=             -2.8884    Z=              0.4033  Tot=              2.9942
 Quadrupole moment (field-independent basis, Debye-Ang):
   XX=            -33.9714   YY=            -35.8192   ZZ=            -35.5460
   XY=              8.1443   XZ=             -0.4443   YZ=              3.0663
 Traceless Quadrupole moment (field-independent basis, Debye-Ang):
   XX=              1.1408   YY=             -0.7070   ZZ=             -0.4338
   XY=              8.1443   XZ=             -0.4443   YZ=              3.0663
 Octapole moment (field-independent basis, Debye-Ang**2):
  XXX=             22.9866  YYY=              5.8574  ZZZ=             -4.4286  XYY=              6.4648
  XXY=              7.2305  XXZ=              7.1752  XZZ=             -2.2599  YZZ=              1.4427
  YYZ=              0.0513  XYZ=              6.0278
 Hexadecapole moment (field-independent basis, Debye-Ang**3):
 XXXX=           -459.4560 YYYY=           -163.5644 ZZZZ=           -141.2793 XXXY=             53.3196
 XXXZ=             16.7513 YYYX=              7.1229 YYYZ=              0.4580 ZZZX=            -12.2110
 ZZZY=              1.3800 XXYY=           -122.0248 XXZZ=           -113.5560 YYZZ=            -49.0313
 XXYZ=             11.4019 YYXZ=              1.3657 ZZXY=              0.8397
 N-N= 2.318105575151D+02 E-N=-1.268726936535D+03  KE= 3.405548179075D+02
  Exact polarizability:   0.000   0.000   0.000   0.000   0.000   0.000
 Approx polarizability:  62.766   5.002  84.607  -2.947  -3.182  55.906

 This type of calculation cannot be archived.


 OPTIMIST - A PESSIMIST WHO LACKS EXPERIENCE
 Job cpu time:       0 days  5 hours 59 minutes 48.3 seconds.
 Elapsed time:       0 days  0 hours 23 minutes  1.2 seconds.
 File lengths (MBytes):  RWF=     28 Int=      0 D2E=      0 Chk=      4 Scr=      1
 Normal termination of Gaussian 16 at Wed Dec 23 22:39:35 2020.
