 Entering Gaussian System, Link 0=g16
 Initial command:
 /apps/cent7/gaussian/g16-B.01/g16-haswell/g16/l1.exe "/scratch/bell/zhao922/YARP/paper-example/KHP-network/pp_0/IRC-folder/Gau-71578.inp" -scrdir="/scratch/bell/zhao922/YARP/paper-example/KHP-network/pp_0/IRC-folder/"
 Entering Link 1 = /apps/cent7/gaussian/g16-B.01/g16-haswell/g16/l1.exe PID=     71580.
  
 Copyright (c) 1988-2017, Gaussian, Inc.  All Rights Reserved.
  
 This is part of the Gaussian(R) 16 program.  It is based on
 the Gaussian(R) 09 system (copyright 2009, Gaussian, Inc.),
 the Gaussian(R) 03 system (copyright 2003, Gaussian, Inc.),
 the Gaussian(R) 98 system (copyright 1998, Gaussian, Inc.),
 the Gaussian(R) 94 system (copyright 1995, Gaussian, Inc.),
 the Gaussian 92(TM) system (copyright 1992, Gaussian, Inc.),
 the Gaussian 90(TM) system (copyright 1990, Gaussian, Inc.),
 the Gaussian 88(TM) system (copyright 1988, Gaussian, Inc.),
 the Gaussian 86(TM) system (copyright 1986, Carnegie Mellon
 University), and the Gaussian 82(TM) system (copyright 1983,
 Carnegie Mellon University). Gaussian is a federally registered
 trademark of Gaussian, Inc.
  
 This software contains proprietary and confidential information,
 including trade secrets, belonging to Gaussian, Inc.
  
 This software is provided under written license and may be
 used, copied, transmitted, or stored only in accord with that
 written license.
  
 The following legend is applicable only to US Government
 contracts under FAR:
  
                    RESTRICTED RIGHTS LEGEND
  
 Use, reproduction and disclosure by the US Government is
 subject to restrictions as set forth in subparagraphs (a)
 and (c) of the Commercial Computer Software - Restricted
 Rights clause in FAR 52.227-19.
  
 Gaussian, Inc.
 340 Quinnipiac St., Bldg. 40, Wallingford CT 06492
  
  
 ---------------------------------------------------------------
 Warning -- This program may not be used in any manner that
 competes with the business of Gaussian, Inc. or will provide
 assistance to any competitor of Gaussian, Inc.  The licensee
 of this program is prohibited from giving any competitor of
 Gaussian, Inc. access to this program.  By using this program,
 the user acknowledges that Gaussian, Inc. is engaged in the
 business of creating and licensing software in the field of
 computational chemistry and represents and warrants to the
 licensee that it is not a competitor of Gaussian, Inc. and that
 it will not use this program in any manner prohibited above.
 ---------------------------------------------------------------
  

 Cite this work as:
 Gaussian 16, Revision B.01,
 M. J. Frisch, G. W. Trucks, H. B. Schlegel, G. E. Scuseria, 
 M. A. Robb, J. R. Cheeseman, G. Scalmani, V. Barone, 
 G. A. Petersson, H. Nakatsuji, X. Li, M. Caricato, A. V. Marenich, 
 J. Bloino, B. G. Janesko, R. Gomperts, B. Mennucci, H. P. Hratchian, 
 J. V. Ortiz, A. F. Izmaylov, J. L. Sonnenberg, D. Williams-Young, 
 F. Ding, F. Lipparini, F. Egidi, J. Goings, B. Peng, A. Petrone, 
 T. Henderson, D. Ranasinghe, V. G. Zakrzewski, J. Gao, N. Rega, 
 G. Zheng, W. Liang, M. Hada, M. Ehara, K. Toyota, R. Fukuda, 
 J. Hasegawa, M. Ishida, T. Nakajima, Y. Honda, O. Kitao, H. Nakai, 
 T. Vreven, K. Throssell, J. A. Montgomery, Jr., J. E. Peralta, 
 F. Ogliaro, M. J. Bearpark, J. J. Heyd, E. N. Brothers, K. N. Kudin, 
 V. N. Staroverov, T. A. Keith, R. Kobayashi, J. Normand, 
 K. Raghavachari, A. P. Rendell, J. C. Burant, S. S. Iyengar, 
 J. Tomasi, M. Cossi, J. M. Millam, M. Klene, C. Adamo, R. Cammi, 
 J. W. Ochterski, R. L. Martin, K. Morokuma, O. Farkas, 
 J. B. Foresman, and D. J. Fox, Gaussian, Inc., Wallingford CT, 2016.
 
 ******************************************
 Gaussian 16:  ES64L-G16RevB.01 20-Dec-2017
                23-Dec-2020 
 ******************************************
 %NProcShared=16
 Will use up to   16 processors via shared memory.
 %Mem=6GB
 ----------------------------------------------------------------------
 # B3LYP/6-31+G* IRC=(CALCALL, maxpoints=40, StepSize=15, maxcyc=100, R
 eport=Cartesians)
 ----------------------------------------------------------------------
 1/6=100,10=4,18=10,26=3,38=1,39=15,42=40,44=3,71=1,129=10,172=1/1,23;
 2/12=2,17=6,18=5,29=1,40=1/2;
 3/5=1,6=6,7=11,11=2,25=1,30=1,71=2,74=-5,140=1/1,2,3;
 4//1;
 5/5=2,38=5/2;
 8/6=4,10=90,11=11/1;
 11/6=1,8=1,9=11,15=111,16=1/1,2,10;
 10/6=1,13=1/2;
 6/7=2,8=2,9=2,10=2,18=1,28=1/1;
 7/10=1,25=1/1,2,3,16;
 1/6=100,10=4,18=10,26=3,39=15,42=40,44=3,71=1,129=10/23(2);
 2/29=1/2;
 99/5=20/99;
 2/29=1/2;
 3/5=1,6=6,7=11,11=2,25=1,30=1,71=2,74=-5,140=1/1,2,3;
 4/5=5,16=3,69=1/1;
 5/5=2,38=5/2;
 8/6=4,10=90,11=11/1;
 11/6=1,8=1,9=11,15=111,16=1/1,2,10;
 10/6=1,13=1/2;
 7/10=1,25=1/1,2,3,16;
 1/6=100,10=4,18=10,26=3,39=15,42=40,44=3,71=1,129=10/23(-8);
 2/29=1/2;
 6/7=2,8=2,9=2,10=2,18=1,19=2,28=1/1;
 99/5=20/99;
 -----------
 pp_19_1 IRC
 -----------
 Symbolic Z-matrix:
 Charge =  0 Multiplicity = 1
 C                     0.07415   1.36538   0.40577 
 C                     0.91509   0.88679  -0.53981 
 C                     1.86384  -0.21758  -0.27979 
 O                    -2.33375   0.20459   0.27444 
 O                    -1.6214   -1.01139  -0.28585 
 O                     1.76057  -1.02553   0.63128 
 H                    -2.03714  -1.12119  -1.16171 
 H                     0.04835   0.93785   1.40361 
 H                    -0.5707    2.21539   0.21799 
 H                     2.71531  -0.28837  -0.9887 
 H                     0.98691   1.37042  -1.51368 
 H                    -0.70458  -0.66302  -0.43342 
 
 IRC-IRC-IRC-IRC-IRC-IRC-IRC-IRC-IRC-IRC-IRC-IRC-IRC-IRC-IRC-IRC-IRC-IRC
 ------------------------------------------------------------------------
 INPUT DATA FOR L123
 ------------------------------------------------------------------------
 GENERAL PARAMETERS:
 Follow reaction path in both directions.
 Maximum points per path      =  40
 Step size                    =   0.150 bohr
 Integration scheme           = HPC                                 
    Redo corrector integration= Yes                                 
    DWI Weight Power          =  2
    DWI will use Hessian update vectors when possible.
    Max correction cycles     = 100
 Initial Hessian              = CalcFC
 Hessian evaluation           = Analytic at all predictor steps
                              = Update at all corrector steps
 Hessian updating method      = Bofill                              
 ------------------------------------------------------------------------
 IRC-IRC-IRC-IRC-IRC-IRC-IRC-IRC-IRC-IRC-IRC-IRC-IRC-IRC-IRC-IRC-IRC-IRC
                          Input orientation:                          
 ---------------------------------------------------------------------
 Center     Atomic      Atomic             Coordinates (Angstroms)
 Number     Number       Type             X           Y           Z
 ---------------------------------------------------------------------
      1          6           0        0.074152    1.365384    0.405765
      2          6           0        0.915090    0.886792   -0.539809
      3          6           0        1.863838   -0.217582   -0.279793
      4          8           0       -2.333747    0.204589    0.274438
      5          8           0       -1.621400   -1.011388   -0.285849
      6          8           0        1.760570   -1.025530    0.631277
      7          1           0       -2.037143   -1.121191   -1.161712
      8          1           0        0.048354    0.937851    1.403612
      9          1           0       -0.570702    2.215386    0.217990
     10          1           0        2.715310   -0.288369   -0.988699
     11          1           0        0.986908    1.370421   -1.513684
     12          1           0       -0.704584   -0.663024   -0.433416
 ---------------------------------------------------------------------
                    Distance matrix (angstroms):
                    1          2          3          4          5
     1  C    0.000000
     2  C    1.352900   0.000000
     3  C    2.485709   1.478977   0.000000
     4  O    2.676316   3.418090   4.255011   0.000000
     5  O    3.000379   3.178264   3.574500   1.516562   0.000000
     6  O    2.934507   2.396509   1.222085   4.289984   3.504146
     7  H    3.619061   3.624147   4.100237   1.976915   0.975723
     8  H    1.085886   2.128550   2.732190   2.736259   3.072766
     9  H    1.083328   2.132369   3.477658   2.674849   3.430727
    10  H    3.413963   2.196201   1.110209   5.227954   4.452394
    11  H    2.125425   1.089719   2.193911   3.947568   3.739500
    12  H    2.329183   2.244235   2.611285   1.976862   0.991809
                    6          7          8          9         10
     6  O    0.000000
     7  H    4.200784   0.000000
     8  H    2.717177   3.894848   0.000000
     9  H    4.013623   3.897021   1.849601   0.000000
    10  H    2.019717   4.827974   3.786743   4.303808   0.000000
    11  H    3.307566   3.934069   3.094934   2.477662   2.452461
    12  H    2.709606   1.586205   2.550370   2.954234   3.484879
                   11         12
    11  H    0.000000
    12  H    2.857100   0.000000
 Symmetry turned off by external request.
 Stoichiometry    C3H6O3
 Framework group  C1[X(C3H6O3)]
 Deg. of freedom    30
 Full point group                 C1      NOp   1
 Rotational constants (GHZ):           5.1699120           1.8995006           1.5807759
 Standard basis: 6-31+G(d) (6D, 7F)
   126 basis functions,   216 primitive gaussians,   126 cartesian basis functions
    24 alpha electrons       24 beta electrons
       nuclear repulsion energy       223.4118172238 Hartrees.
 NAtoms=   12 NActive=   12 NUniq=   12 SFac= 1.00D+00 NAtFMM=   60 NAOKFM=F Big=F
 Integral buffers will be    131072 words long.
 Raffenetti 2 integral format.
 Two-electron integral symmetry is turned off.
 One-electron integrals computed using PRISM.
 NBasis=   126 RedAO= T EigKep=  8.28D-05  NBF=   126
 NBsUse=   126 1.00D-06 EigRej= -1.00D+00 NBFU=   126
 ExpMin= 4.38D-02 ExpMax= 5.48D+03 ExpMxC= 8.25D+02 IAcc=3 IRadAn=         5 AccDes= 0.00D+00
 Harris functional with IExCor=  402 and IRadAn=       5 diagonalized for initial guess.
 HarFok:  IExCor=  402 AccDes= 0.00D+00 IRadAn=         5 IDoV= 1 UseB2=F ITyADJ=14
 ICtDFT=  3500011 ScaDFX=  1.000000  1.000000  1.000000  1.000000
 FoFCou: FMM=F IPFlag=           0 FMFlag=      100000 FMFlg1=           0
         NFxFlg=           0 DoJE=T BraDBF=F KetDBF=T FulRan=T
         wScrn=  0.000000 ICntrl=       500 IOpCl=  0 I1Cent=   200000004 NGrid=           0
         NMat0=    1 NMatS0=      1 NMatT0=    0 NMatD0=    1 NMtDS0=    0 NMtDT0=    0
 Symmetry not used in FoFCou.
 Keep R1 ints in memory in canonical form, NReq=47237219.
 Requested convergence on RMS density matrix=1.00D-08 within 128 cycles.
 Requested convergence on MAX density matrix=1.00D-06.
 Requested convergence on             energy=1.00D-06.
 No special actions if energy rises.
 SCF Done:  E(RB3LYP) =  -343.405132925     A.U. after   14 cycles
            NFock= 14  Conv=0.67D-08     -V/T= 2.0093
 DoSCS=F DFT=T ScalE2(SS,OS)=  1.000000  1.000000
 Range of M.O.s used for correlation:     1   126
 NBasis=   126 NAE=    24 NBE=    24 NFC=     0 NFV=     0
 NROrb=    126 NOA=    24 NOB=    24 NVA=   102 NVB=   102

 **** Warning!!: The largest alpha MO coefficient is  0.38147857D+02

 Symmetrizing basis deriv contribution to polar:
 IMax=3 JMax=2 DiffMx= 0.00D+00
 G2DrvN: will do    13 centers at a time, making    1 passes.
 Calling FoFCou, ICntrl=  3107 FMM=F I1Cent=   0 AccDes= 0.00D+00.
 End of G2Drv F.D. properties file   721 does not exist.
 End of G2Drv F.D. properties file   722 does not exist.
 End of G2Drv F.D. properties file   788 does not exist.
          IDoAtm=111111111111
          Differentiating once with respect to nuclear coordinates.
 Keep R1 ints in memory in canonical form, NReq=47193234.
          There are    39 degrees of freedom in the 1st order CPHF.  IDoFFX=6 NUNeed=     0.
     33 vectors produced by pass  0 Test12= 6.28D-15 2.56D-09 XBig12= 1.21D-01 1.41D-01.
 AX will form    33 AO Fock derivatives at one time.
     33 vectors produced by pass  1 Test12= 6.28D-15 2.56D-09 XBig12= 9.91D-03 3.22D-02.
     33 vectors produced by pass  2 Test12= 6.28D-15 2.56D-09 XBig12= 1.06D-04 1.40D-03.
     33 vectors produced by pass  3 Test12= 6.28D-15 2.56D-09 XBig12= 5.24D-07 1.37D-04.
     33 vectors produced by pass  4 Test12= 6.28D-15 2.56D-09 XBig12= 8.37D-10 4.36D-06.
     28 vectors produced by pass  5 Test12= 6.28D-15 2.56D-09 XBig12= 7.78D-13 1.44D-07.
      4 vectors produced by pass  6 Test12= 6.28D-15 2.56D-09 XBig12= 7.36D-16 3.69D-09.
 InvSVY:  IOpt=1 It=  1 EMax= 1.55D-15
 Solved reduced A of dimension   197 with    33 vectors.
 End of Minotr F.D. properties file   721 does not exist.
 End of Minotr F.D. properties file   722 does not exist.
 End of Minotr F.D. properties file   788 does not exist.

 **********************************************************************

            Population analysis using the SCF Density.

 **********************************************************************

 Alpha  occ. eigenvalues --  -19.30952 -19.17181 -19.15143 -10.29946 -10.23756
 Alpha  occ. eigenvalues --  -10.22436  -1.16593  -1.06371  -0.85748  -0.81330
 Alpha  occ. eigenvalues --   -0.67857  -0.64871  -0.56374  -0.52629  -0.51718
 Alpha  occ. eigenvalues --   -0.46638  -0.45783  -0.44661  -0.41587  -0.40231
 Alpha  occ. eigenvalues --   -0.31138  -0.28017  -0.25634  -0.24584
 Alpha virt. eigenvalues --   -0.09000  -0.03868  -0.00750   0.01099   0.01898
 Alpha virt. eigenvalues --    0.03141   0.04158   0.06272   0.06551   0.07233
 Alpha virt. eigenvalues --    0.07548   0.10225   0.10772   0.11271   0.12697
 Alpha virt. eigenvalues --    0.14639   0.15559   0.16572   0.18203   0.19829
 Alpha virt. eigenvalues --    0.20871   0.21434   0.22724   0.23171   0.24745
 Alpha virt. eigenvalues --    0.25664   0.27859   0.27981   0.29884   0.30341
 Alpha virt. eigenvalues --    0.33419   0.34837   0.35907   0.38265   0.39779
 Alpha virt. eigenvalues --    0.45906   0.61325   0.64669   0.67488   0.71689
 Alpha virt. eigenvalues --    0.73085   0.73472   0.77737   0.84582   0.89403
 Alpha virt. eigenvalues --    0.91750   0.93701   0.98173   1.00135   1.03874
 Alpha virt. eigenvalues --    1.05287   1.05540   1.07160   1.11510   1.12288
 Alpha virt. eigenvalues --    1.18089   1.22448   1.23735   1.25529   1.27881
 Alpha virt. eigenvalues --    1.29382   1.31623   1.33291   1.38212   1.45925
 Alpha virt. eigenvalues --    1.49101   1.51286   1.53520   1.56374   1.60855
 Alpha virt. eigenvalues --    1.63918   1.64798   1.73057   1.79280   1.81362
 Alpha virt. eigenvalues --    1.83108   1.87451   1.91761   1.94134   2.00282
 Alpha virt. eigenvalues --    2.04187   2.16469   2.18836   2.21358   2.24445
 Alpha virt. eigenvalues --    2.26674   2.28404   2.39077   2.50915   2.54551
 Alpha virt. eigenvalues --    2.59922   2.61722   2.76141   2.96421   3.06708
 Alpha virt. eigenvalues --    3.10685   3.82245   4.12798   4.16324   4.22440
 Alpha virt. eigenvalues --    4.26828   4.46582
          Condensed to atoms (all electrons):
               1          2          3          4          5          6
     1  C    5.673900   0.058160  -0.087302   0.127881   0.000699   0.076997
     2  C    0.058160   6.101422   0.021993  -0.035084  -0.093205  -0.230873
     3  C   -0.087302   0.021993   5.180825  -0.039006  -0.005943   0.438255
     4  O    0.127881  -0.035084  -0.039006   8.567790  -0.134235   0.000996
     5  O    0.000699  -0.093205  -0.005943  -0.134235   8.515821   0.008523
     6  O    0.076997  -0.230873   0.438255   0.000996   0.008523   8.160682
     7  H    0.008418  -0.007494   0.003398  -0.043845   0.216111  -0.000514
     8  H    0.400712  -0.070380  -0.004815  -0.012091   0.002315   0.006275
     9  H    0.350809  -0.027192   0.019392  -0.012690   0.001740   0.000071
    10  H    0.043865  -0.197629   0.423366  -0.000074   0.000147  -0.058878
    11  H   -0.004676   0.306739  -0.014514  -0.000234   0.002331   0.006445
    12  H   -0.038729   0.108317   0.024852  -0.040925   0.136203  -0.003011
               7          8          9         10         11         12
     1  C    0.008418   0.400712   0.350809   0.043865  -0.004676  -0.038729
     2  C   -0.007494  -0.070380  -0.027192  -0.197629   0.306739   0.108317
     3  C    0.003398  -0.004815   0.019392   0.423366  -0.014514   0.024852
     4  O   -0.043845  -0.012091  -0.012690  -0.000074  -0.000234  -0.040925
     5  O    0.216111   0.002315   0.001740   0.000147   0.002331   0.136203
     6  O   -0.000514   0.006275   0.000071  -0.058878   0.006445  -0.003011
     7  H    0.277390  -0.000016  -0.000040   0.000005  -0.000031  -0.018250
     8  H   -0.000016   0.439833  -0.023239   0.000110   0.003780   0.000851
     9  H   -0.000040  -0.023239   0.461321  -0.000102  -0.004484   0.000423
    10  H    0.000005   0.000110  -0.000102   0.623712   0.002300   0.000282
    11  H   -0.000031   0.003780  -0.004484   0.002300   0.509480  -0.001483
    12  H   -0.018250   0.000851   0.000423   0.000282  -0.001483   0.304272
 Mulliken charges:
               1
     1  C   -0.610734
     2  C    0.065225
     3  C    0.039499
     4  O   -0.378483
     5  O   -0.650506
     6  O   -0.404968
     7  H    0.564868
     8  H    0.256666
     9  H    0.233992
    10  H    0.162896
    11  H    0.194347
    12  H    0.527198
 Sum of Mulliken charges =  -0.00000
 Mulliken charges with hydrogens summed into heavy atoms:
               1
     1  C   -0.120076
     2  C    0.259572
     3  C    0.202395
     4  O   -0.378483
     5  O    0.441559
     6  O   -0.404968
 APT charges:
               1
     1  C   -1.079033
     2  C   -0.191456
     3  C   -0.353313
     4  O   -0.550334
     5  O   -0.570417
     6  O   -0.405095
     7  H    0.812394
     8  H    0.390806
     9  H    0.559964
    10  H    0.538001
    11  H    0.492336
    12  H    0.356146
 Sum of APT charges =  -0.00000
 APT charges with hydrogens summed into heavy atoms:
               1
     1  C   -0.128263
     2  C    0.300880
     3  C    0.184688
     4  O   -0.550334
     5  O    0.598124
     6  O   -0.405095
 Electronic spatial extent (au):  <R**2>=            747.3940
 Charge=             -0.0000 electrons
 Dipole moment (field-independent basis, Debye):
    X=              1.4074    Y=              0.6345    Z=             -4.3384  Tot=              4.6049
 Quadrupole moment (field-independent basis, Debye-Ang):
   XX=            -44.7188   YY=            -35.4729   ZZ=            -33.3125
   XY=              5.8766   XZ=              2.2244   YZ=              5.0187
 Traceless Quadrupole moment (field-independent basis, Debye-Ang):
   XX=             -6.8840   YY=              2.3618   ZZ=              4.5222
   XY=              5.8766   XZ=              2.2244   YZ=              5.0187
 Octapole moment (field-independent basis, Debye-Ang**2):
  XXX=             13.8735  YYY=             -2.3028  ZZZ=             -4.2179  XYY=            -13.5937
  XXY=             -6.1639  XXZ=            -19.5832  XZZ=             -7.3136  YZZ=             -3.5501
  YYZ=             -4.8353  XYZ=             -4.0249
 Hexadecapole moment (field-independent basis, Debye-Ang**3):
 XXXX=           -662.1142 YYYY=           -224.5417 ZZZZ=            -91.7842 XXXY=             27.5589
 XXXZ=             19.7271 YYYX=              1.1894 YYYZ=              6.8554 ZZZX=             13.5292
 ZZZY=              6.1621 XXYY=           -141.4866 XXZZ=           -110.0514 YYZZ=            -49.4960
 XXYZ=             20.6863 YYXZ=              2.8059 ZZXY=             10.3329
 N-N= 2.234118172238D+02 E-N=-1.251250322578D+03  KE= 3.402310932437D+02
  Exact polarizability:   0.000   0.000   0.000   0.000   0.000   0.000
 Approx polarizability:  94.527 -15.401  81.471 -15.077  -0.143  73.516
 Calling FoFJK, ICntrl=    100127 FMM=F ISym2X=0 I1Cent= 0 IOpClX= 0 NMat=1 NMatS=1 NMatT=0.
 -------------------------------------------------------------------
 Center     Atomic                   Forces (Hartrees/Bohr)
 Number     Number              X              Y              Z
 -------------------------------------------------------------------
      1        6          -0.000001989   -0.000002979    0.000000816
      2        6           0.000005139   -0.000000927   -0.000001258
      3        6          -0.000000404    0.000004016   -0.000000864
      4        8           0.000000402   -0.000002039   -0.000002091
      5        8          -0.000004787   -0.000001118    0.000005447
      6        8           0.000000881   -0.000001799    0.000001252
      7        1           0.000003459    0.000001264    0.000000215
      8        1           0.000001141    0.000001561    0.000000234
      9        1          -0.000000025    0.000000992   -0.000000554
     10        1          -0.000000154   -0.000000210   -0.000000337
     11        1           0.000000005   -0.000000063   -0.000000613
     12        1          -0.000003668    0.000001303   -0.000002248
 -------------------------------------------------------------------
 Cartesian Forces:  Max     0.000005447 RMS     0.000002154
 IRC-IRC-IRC-IRC-IRC-IRC-IRC-IRC-IRC-IRC-IRC-IRC-IRC-IRC-IRC-IRC-IRC-IRC
          ******** Start new reaction path calculation ********
 Supplied step size of   0.1500 bohr.
    Integration on MW PES will use step size of   0.3030 sqrt(amu)*bohr.
 Point Number:   0          Path Number:   1
 Calculating another point on the path.
 IRC-IRC-IRC-IRC-IRC-IRC-IRC-IRC-IRC-IRC-IRC-IRC-IRC-IRC-IRC-IRC-IRC-IRC
                          Input orientation:                          
 ---------------------------------------------------------------------
 Center     Atomic      Atomic             Coordinates (Angstroms)
 Number     Number       Type             X           Y           Z
 ---------------------------------------------------------------------
      1          6           0        0.082148    1.398082    0.376053
      2          6           0        0.931427    0.926039   -0.564681
      3          6           0        1.873334   -0.183231   -0.304068
      4          8           0       -2.330436    0.231964    0.238606
      5          8           0       -1.617589   -0.995933   -0.297517
      6          8           0        1.748491   -1.007191    0.590971
      7          1           0       -2.011301   -1.104374   -1.183968
      8          1           0        0.047162    0.965077    1.371361
      9          1           0       -0.561530    2.248887    0.187702
     10          1           0        2.740258   -0.243576   -0.995239
     11          1           0        1.012307    1.415605   -1.534869
     12          1           0       -0.692619   -0.663253   -0.422710
 ---------------------------------------------------------------------
                    Distance matrix (angstroms):
                    1          2          3          4          5
     1  C    0.000000
     2  C    1.352435   0.000000
     3  C    2.484243   1.478373   0.000000
     4  O    2.683148   3.430272   4.258939   0.000000
     5  O    3.012326   3.203567   3.584281   1.517665   0.000000
     6  O    2.933978   2.395935   1.222943   4.277535   3.481384
     7  H    3.616418   3.628463   4.088168   1.977716   0.975994
     8  H    1.085982   2.128782   2.731406   2.733782   3.066286
     9  H    1.083358   2.131884   3.476434   2.683207   3.446673
    10  H    3.411896   2.196645   1.110368   5.240272   4.477018
    11  H    2.125353   1.089715   2.193744   3.964864   3.776627
    12  H    2.342518   2.276738   2.613162   1.980201   0.990918
                    6          7          8          9         10
     6  O    0.000000
     7  H    4.158832   0.000000
     8  H    2.719075   3.879382   0.000000
     9  H    4.012588   3.902265   1.849249   0.000000
    10  H    2.020587   4.832588   3.783439   4.302735   0.000000
    11  H    3.306221   3.951662   3.095263   2.477615   2.455585
    12  H    2.665495   1.585251   2.533265   2.978313   3.505505
                   11         12
    11  H    0.000000
    12  H    2.909523   0.000000
 Symmetry turned off by external request.
 Stoichiometry    C3H6O3
 Framework group  C1[X(C3H6O3)]
 Deg. of freedom    30
 Full point group                 C1      NOp   1
 Rotational constants (GHZ):           5.1402649           1.9063835           1.5760917
 Standard basis: 6-31+G(d) (6D, 7F)
   126 basis functions,   216 primitive gaussians,   126 cartesian basis functions
    24 alpha electrons       24 beta electrons
       nuclear repulsion energy       223.2865240138 Hartrees.
 NAtoms=   12 NActive=   12 NUniq=   12 SFac= 1.00D+00 NAtFMM=   60 NAOKFM=F Big=F
 Integral buffers will be    131072 words long.
 Raffenetti 2 integral format.
 Two-electron integral symmetry is turned off.
 One-electron integrals computed using PRISM.
 NBasis=   126 RedAO= T EigKep=  8.36D-05  NBF=   126
 NBsUse=   126 1.00D-06 EigRej= -1.00D+00 NBFU=   126
 Initial guess from the checkpoint file:  "/scratch/bell/zhao922/YARP/paper-example/KHP-network/pp_0/IRC-folder/Gau-71580.chk"
 B after Tr=     0.010214    0.050961   -0.050291
         Rot=    1.000000    0.000088    0.000197   -0.000151 Ang=   0.03 deg.
 ExpMin= 4.38D-02 ExpMax= 5.48D+03 ExpMxC= 8.25D+02 IAcc=3 IRadAn=         5 AccDes= 0.00D+00
 Harris functional with IExCor=  402 and IRadAn=       5 diagonalized for initial guess.
 HarFok:  IExCor=  402 AccDes= 0.00D+00 IRadAn=         5 IDoV= 1 UseB2=F ITyADJ=14
 ICtDFT=  3500011 ScaDFX=  1.000000  1.000000  1.000000  1.000000
 FoFCou: FMM=F IPFlag=           0 FMFlag=      100000 FMFlg1=           0
         NFxFlg=           0 DoJE=T BraDBF=F KetDBF=T FulRan=T
         wScrn=  0.000000 ICntrl=       500 IOpCl=  0 I1Cent=   200000004 NGrid=           0
         NMat0=    1 NMatS0=      1 NMatT0=    0 NMatD0=    1 NMtDS0=    0 NMtDT0=    0
 Symmetry not used in FoFCou.
 Keep R1 ints in memory in canonical form, NReq=47237219.
 Requested convergence on RMS density matrix=1.00D-08 within 128 cycles.
 Requested convergence on MAX density matrix=1.00D-06.
 Requested convergence on             energy=1.00D-06.
 No special actions if energy rises.
 SCF Done:  E(RB3LYP) =  -343.405148371     A.U. after   12 cycles
            NFock= 12  Conv=0.56D-08     -V/T= 2.0093
 DoSCS=F DFT=T ScalE2(SS,OS)=  1.000000  1.000000
 Range of M.O.s used for correlation:     1   126
 NBasis=   126 NAE=    24 NBE=    24 NFC=     0 NFV=     0
 NROrb=    126 NOA=    24 NOB=    24 NVA=   102 NVB=   102

 **** Warning!!: The largest alpha MO coefficient is  0.37747326D+02

 Symmetrizing basis deriv contribution to polar:
 IMax=3 JMax=2 DiffMx= 0.00D+00
 G2DrvN: will do    13 centers at a time, making    1 passes.
 Calling FoFCou, ICntrl=  3107 FMM=F I1Cent=   0 AccDes= 0.00D+00.
 End of G2Drv F.D. properties file   721 does not exist.
 End of G2Drv F.D. properties file   722 does not exist.
 End of G2Drv F.D. properties file   788 does not exist.
          IDoAtm=111111111111
          Differentiating once with respect to nuclear coordinates.
 Keep R1 ints in memory in canonical form, NReq=47193234.
          There are    39 degrees of freedom in the 1st order CPHF.  IDoFFX=6 NUNeed=     0.
     33 vectors produced by pass  0 Test12= 6.28D-15 2.56D-09 XBig12= 1.19D-01 1.39D-01.
 AX will form    33 AO Fock derivatives at one time.
     33 vectors produced by pass  1 Test12= 6.28D-15 2.56D-09 XBig12= 1.06D-02 3.42D-02.
     33 vectors produced by pass  2 Test12= 6.28D-15 2.56D-09 XBig12= 1.18D-04 1.43D-03.
     33 vectors produced by pass  3 Test12= 6.28D-15 2.56D-09 XBig12= 5.91D-07 1.48D-04.
     33 vectors produced by pass  4 Test12= 6.28D-15 2.56D-09 XBig12= 9.37D-10 4.20D-06.
     28 vectors produced by pass  5 Test12= 6.28D-15 2.56D-09 XBig12= 8.72D-13 1.42D-07.
      3 vectors produced by pass  6 Test12= 6.28D-15 2.56D-09 XBig12= 8.25D-16 3.53D-09.
 InvSVY:  IOpt=1 It=  1 EMax= 1.22D-15
 Solved reduced A of dimension   196 with    33 vectors.
 End of Minotr F.D. properties file   721 does not exist.
 End of Minotr F.D. properties file   722 does not exist.
 End of Minotr F.D. properties file   788 does not exist.
 Calling FoFJK, ICntrl=    100127 FMM=F ISym2X=0 I1Cent= 0 IOpClX= 0 NMat=1 NMatS=1 NMatT=0.
 -------------------------------------------------------------------
 Center     Atomic                   Forces (Hartrees/Bohr)
 Number     Number              X              Y              Z
 -------------------------------------------------------------------
      1        6           0.000029753    0.000021376   -0.000018827
      2        6           0.000093120    0.000059674    0.000031455
      3        6           0.000037931   -0.000256803    0.000304010
      4        8           0.000073720   -0.000075130   -0.000111526
      5        8           0.000064175    0.000022256   -0.000151864
      6        8          -0.000081694    0.000330781   -0.000603824
      7        1           0.000130219    0.000020746    0.000263662
      8        1           0.000001594    0.000014351   -0.000043660
      9        1           0.000005100    0.000007460    0.000000635
     10        1          -0.000125061   -0.000030961    0.000170274
     11        1           0.000018143    0.000000739    0.000044173
     12        1          -0.000247000   -0.000114489    0.000115491
 -------------------------------------------------------------------
 Cartesian Forces:  Max     0.000603824 RMS     0.000160818
 IRC-IRC-IRC-IRC-IRC-IRC-IRC-IRC-IRC-IRC-IRC-IRC-IRC-IRC-IRC-IRC-IRC-IRC
 Pt  1 Step number   1 out of a maximum of 100
 Modified Bulirsch-Stoer Extrapolation Cycles:
    EPS =    0.000010000000000
      PEZero:  N= 2 I= 1 D=  7.89D-04 Err=  2.02D-03
      PEZero:  N= 3 I= 2 D=  7.89D-04 Err=  4.28D-03
      PEZero:  N= 3 I= 1 D=  1.58D-03 Err=  4.40D-03
      PEZero:  N= 4 I= 3 D=  3.95D-04 Err=  8.29D-03
      PEZero:  N= 4 I= 2 D=  1.18D-03 Err=  6.78D-03
      PEZero:  N= 4 I= 1 D=  1.97D-03 Err=  5.57D-03
      PEZero:  N= 5 I= 4 D=  3.95D-04 Err=  1.28D-02
      PEZero:  N= 5 I= 3 D=  7.89D-04 Err=  1.08D-02
      PEZero:  N= 5 I= 2 D=  1.58D-03 Err=  7.44D-03
      PEZero:  N= 5 I= 1 D=  2.37D-03 Err=  5.59D-03
      PEZero:  N= 6 I= 5 D=  1.97D-04 Err=  2.20D-02
      PEZero:  N= 6 I= 4 D=  5.92D-04 Err=  1.65D-02
      PEZero:  N= 6 I= 3 D=  9.86D-04 Err=  1.33D-02
      PEZero:  N= 6 I= 2 D=  1.78D-03 Err=  9.37D-03
      PEZero:  N= 6 I= 1 D=  2.56D-03 Err=  7.36D-03
      PEZero:  N= 7 I= 6 D=  1.97D-04 Err=  3.55D-02
      PEZero:  N= 7 I= 5 D=  3.95D-04 Err=  3.13D-02
      PEZero:  N= 7 I= 4 D=  7.89D-04 Err=  2.30D-02
      PEZero:  N= 7 I= 3 D=  1.18D-03 Err=  1.86D-02
      PEZero:  N= 7 I= 2 D=  1.97D-03 Err=  1.30D-02
      PEZero:  N= 7 I= 1 D=  2.76D-03 Err=  1.01D-02
      PEZero:  N= 8 I= 7 D=  9.86D-05 Err=  4.12D-02
      PEZero:  N= 8 I= 6 D=  2.96D-04 Err=  1.95D-02
      PEZero:  N= 8 I= 5 D=  4.93D-04 Err=  4.60D-03
      PEZero:  N= 8 I= 4 D=  8.88D-04 Err=  3.75D-03
      PEZero:  N= 8 I= 3 D=  1.28D-03 Err=  7.61D-03
      PEZero:  N= 9 I= 8 D=  9.86D-05 Err=  1.23D-02
      PEZero:  N= 9 I= 7 D=  1.97D-04 Err=  2.28D-02
      PEZero:  N=10 I= 9 D=  4.93D-05 Err=  7.71D-05
      PEZero:  N=10 I= 8 D=  1.48D-04 Err=  1.22D-02
      PEZero:  N=11 I=10 D=  4.93D-05 Err=  4.35D-05
      PEZero:  N=11 I= 9 D=  9.86D-05 Err=  1.18D-05
      PEZero:  N=11 I= 8 D=  1.97D-04 Err=  9.75D-03
 Maximum DWI energy   std dev =  0.000000349 at pt   336
 Maximum DWI gradient std dev =  0.728674354 at pt   412
 WARNING: Bulirsch-Stoer Method is not Converging
 CORRECTOR INTEGRATION CONVERGENCE:
   Recorrection delta-x convergence threshold:    0.010000
   Delta-x Convergence NOT Met
 IRC-IRC-IRC-IRC-IRC-IRC-IRC-IRC-IRC-IRC-IRC-IRC-IRC-IRC-IRC-IRC-IRC-IRC
                          Input orientation:                          
 ---------------------------------------------------------------------
 Center     Atomic      Atomic             Coordinates (Angstroms)
 Number     Number       Type             X           Y           Z
 ---------------------------------------------------------------------
      1          6           0        0.082141    1.398057    0.375947
      2          6           0        0.931350    0.925876   -0.564718
      3          6           0        1.873131   -0.183339   -0.303986
      4          8           0       -2.329793    0.231905    0.238879
      5          8           0       -1.618179   -0.996037   -0.297977
      6          8           0        1.748503   -1.006789    0.591076
      7          1           0       -2.008950   -1.101535   -1.185751
      8          1           0        0.047310    0.965302    1.371310
      9          1           0       -0.561468    2.248905    0.187575
     10          1           0        2.739805   -0.244253   -0.994923
     11          1           0        1.012218    1.415304   -1.534908
     12          1           0       -0.692258   -0.665606   -0.418998
 ---------------------------------------------------------------------
                    Distance matrix (angstroms):
                    1          2          3          4          5
     1  C    0.000000
     2  C    1.352391   0.000000
     3  C    2.484103   1.478273   0.000000
     4  O    2.682559   3.429638   4.258134   0.000000
     5  O    3.012798   3.203904   3.584657   1.517383   0.000000
     6  O    2.933654   2.395578   1.222595   4.276787   3.482109
     7  H    3.613796   3.625113   4.085480   1.977516   0.975691
     8  H    1.085927   2.128682   2.731230   2.733293   3.067120
     9  H    1.083355   2.131866   3.476308   2.682889   3.447035
    10  H    3.411693   2.196540   1.110057   5.239257   4.476934
    11  H    2.125255   1.089655   2.193627   3.964315   3.776713
    12  H    2.343146   2.278190   2.612859   1.979861   0.990536
                    6          7          8          9         10
     6  O    0.000000
     7  H    4.157469   0.000000
     8  H    2.718817   3.877961   0.000000
     9  H    4.012272   3.899573   1.849183   0.000000
    10  H    2.019786   4.829288   3.783069   4.302620   0.000000
    11  H    3.305822   3.947638   3.095102   2.477565   2.455660
    12  H    2.663451   1.584810   2.532197   2.979833   3.505465
                   11         12
    11  H    0.000000
    12  H    2.912161   0.000000
 Symmetry turned off by external request.
 Stoichiometry    C3H6O3
 Framework group  C1[X(C3H6O3)]
 Deg. of freedom    30
 Full point group                 C1      NOp   1
 Rotational constants (GHZ):           5.1407514           1.9066153           1.5763763
 Standard basis: 6-31+G(d) (6D, 7F)
   126 basis functions,   216 primitive gaussians,   126 cartesian basis functions
    24 alpha electrons       24 beta electrons
       nuclear repulsion energy       223.3112649024 Hartrees.
 NAtoms=   12 NActive=   12 NUniq=   12 SFac= 1.00D+00 NAtFMM=   60 NAOKFM=F Big=F
 Integral buffers will be    131072 words long.
 Raffenetti 2 integral format.
 Two-electron integral symmetry is turned off.
 One-electron integrals computed using PRISM.
 NBasis=   126 RedAO= T EigKep=  8.36D-05  NBF=   126
 NBsUse=   126 1.00D-06 EigRej= -1.00D+00 NBFU=   126
 Initial guess from the checkpoint file:  "/scratch/bell/zhao922/YARP/paper-example/KHP-network/pp_0/IRC-folder/Gau-71580.chk"
 B after Tr=     0.000044   -0.000004    0.000040
         Rot=    1.000000    0.000006    0.000013    0.000009 Ang=   0.00 deg.
 ExpMin= 4.38D-02 ExpMax= 5.48D+03 ExpMxC= 8.25D+02 IAcc=3 IRadAn=         5 AccDes= 0.00D+00
 Harris functional with IExCor=  402 and IRadAn=       5 diagonalized for initial guess.
 HarFok:  IExCor=  402 AccDes= 0.00D+00 IRadAn=         5 IDoV= 1 UseB2=F ITyADJ=14
 ICtDFT=  3500011 ScaDFX=  1.000000  1.000000  1.000000  1.000000
 FoFCou: FMM=F IPFlag=           0 FMFlag=      100000 FMFlg1=           0
         NFxFlg=           0 DoJE=T BraDBF=F KetDBF=T FulRan=T
         wScrn=  0.000000 ICntrl=       500 IOpCl=  0 I1Cent=   200000004 NGrid=           0
         NMat0=    1 NMatS0=      1 NMatT0=    0 NMatD0=    1 NMtDS0=    0 NMtDT0=    0
 Symmetry not used in FoFCou.
 Keep R1 ints in memory in canonical form, NReq=47237219.
 Requested convergence on RMS density matrix=1.00D-08 within 128 cycles.
 Requested convergence on MAX density matrix=1.00D-06.
 Requested convergence on             energy=1.00D-06.
 No special actions if energy rises.
 SCF Done:  E(RB3LYP) =  -343.405149185     A.U. after   10 cycles
            NFock= 10  Conv=0.35D-08     -V/T= 2.0093
 DoSCS=F DFT=T ScalE2(SS,OS)=  1.000000  1.000000
 Range of M.O.s used for correlation:     1   126
 NBasis=   126 NAE=    24 NBE=    24 NFC=     0 NFV=     0
 NROrb=    126 NOA=    24 NOB=    24 NVA=   102 NVB=   102

 **** Warning!!: The largest alpha MO coefficient is  0.37753414D+02

 Symmetrizing basis deriv contribution to polar:
 IMax=3 JMax=2 DiffMx= 0.00D+00
 Calling FoFJK, ICntrl=      2127 FMM=F ISym2X=0 I1Cent= 0 IOpClX= 0 NMat=1 NMatS=1 NMatT=0.
 -------------------------------------------------------------------
 Center     Atomic                   Forces (Hartrees/Bohr)
 Number     Number              X              Y              Z
 -------------------------------------------------------------------
      1        6           0.000027897    0.000051399   -0.000023957
      2        6           0.000097944    0.000104481    0.000018599
      3        6           0.000033528    0.000060964    0.000025766
      4        8           0.000010840    0.000002818   -0.000087406
      5        8          -0.000022809   -0.000135758    0.000155392
      6        8          -0.000197378   -0.000085013   -0.000146096
      7        1           0.000025080   -0.000000039    0.000008115
      8        1          -0.000004050    0.000000785   -0.000003886
      9        1           0.000003455    0.000005081   -0.000002395
     10        1           0.000013158    0.000011213    0.000015400
     11        1           0.000014839    0.000012844    0.000004330
     12        1          -0.000002504   -0.000028774    0.000036138
 -------------------------------------------------------------------
 Cartesian Forces:  Max     0.000197378 RMS     0.000065106
 IRC-IRC-IRC-IRC-IRC-IRC-IRC-IRC-IRC-IRC-IRC-IRC-IRC-IRC-IRC-IRC-IRC-IRC
 Error in corrector energy =           0.0000000197
 Magnitude of corrector gradient =     0.0003959315
 Magnitude of analytic gradient =      0.0003906355
 Magnitude of difference =             0.0000182555
 Angle between gradients (degrees)=    2.5455
 Pt  1 Step number   2 out of a maximum of 100
 Modified Bulirsch-Stoer Extrapolation Cycles:
    EPS =    0.000010000000000
      PEZero:  N= 2 I= 1 D=  7.89D-04 Err=  3.15D-03
      PEZero:  N= 3 I= 2 D=  7.89D-04 Err=  4.96D-03
      PEZero:  N= 3 I= 1 D=  1.58D-03 Err=  4.30D-03
      PEZero:  N= 4 I= 3 D=  3.95D-04 Err=  8.94D-03
      PEZero:  N= 4 I= 2 D=  1.18D-03 Err=  6.96D-03
      PEZero:  N= 4 I= 1 D=  1.97D-03 Err=  5.77D-03
      PEZero:  N= 5 I= 4 D=  3.95D-04 Err=  1.39D-02
      PEZero:  N= 5 I= 3 D=  7.89D-04 Err=  1.19D-02
      PEZero:  N= 5 I= 2 D=  1.58D-03 Err=  8.41D-03
      PEZero:  N= 5 I= 1 D=  2.37D-03 Err=  6.49D-03
      PEZero:  N= 6 I= 5 D=  1.97D-04 Err=  2.42D-02
      PEZero:  N= 6 I= 4 D=  5.92D-04 Err=  1.84D-02
      PEZero:  N= 6 I= 3 D=  9.86D-04 Err=  1.50D-02
      PEZero:  N= 6 I= 2 D=  1.78D-03 Err=  1.05D-02
      PEZero:  N= 6 I= 1 D=  2.56D-03 Err=  8.20D-03
      PEZero:  N= 7 I= 6 D=  1.97D-04 Err=  3.87D-02
      PEZero:  N= 7 I= 5 D=  3.95D-04 Err=  3.38D-02
      PEZero:  N= 7 I= 4 D=  7.89D-04 Err=  2.46D-02
      PEZero:  N= 7 I= 3 D=  1.18D-03 Err=  1.96D-02
      PEZero:  N= 7 I= 2 D=  1.97D-03 Err=  1.36D-02
      PEZero:  N= 7 I= 1 D=  2.76D-03 Err=  1.05D-02
      PEZero:  N= 8 I= 7 D=  9.86D-05 Err=  3.84D-02
      PEZero:  N= 8 I= 6 D=  2.96D-04 Err=  1.25D-02
      PEZero:  N= 8 I= 5 D=  4.93D-04 Err=  5.26D-03
      PEZero:  N= 8 I= 4 D=  8.88D-04 Err=  1.29D-02
      PEZero:  N= 9 I= 8 D=  9.86D-05 Err=  1.07D-02
      PEZero:  N= 9 I= 7 D=  1.97D-04 Err=  2.24D-02
      PEZero:  N=10 I= 9 D=  4.93D-05 Err=  9.31D-05
      PEZero:  N=10 I= 8 D=  1.48D-04 Err=  1.06D-02
      PEZero:  N=11 I=10 D=  4.93D-05 Err=  5.51D-05
      PEZero:  N=11 I= 9 D=  9.86D-05 Err=  1.05D-05
      PEZero:  N=11 I= 8 D=  1.97D-04 Err=  6.28D-03
 Maximum DWI energy   std dev =  0.000000390 at pt   330
 Maximum DWI gradient std dev =  1.399116337 at pt     3
 WARNING: Bulirsch-Stoer Method is not Converging
 CORRECTOR INTEGRATION CONVERGENCE:
   Recorrection delta-x convergence threshold:    0.010000
   Delta-x Convergence NOT Met
 IRC-IRC-IRC-IRC-IRC-IRC-IRC-IRC-IRC-IRC-IRC-IRC-IRC-IRC-IRC-IRC-IRC-IRC
                          Input orientation:                          
 ---------------------------------------------------------------------
 Center     Atomic      Atomic             Coordinates (Angstroms)
 Number     Number       Type             X           Y           Z
 ---------------------------------------------------------------------
      1          6           0        0.082133    1.398112    0.375917
      2          6           0        0.931268    0.925867   -0.564785
      3          6           0        1.872982   -0.183380   -0.304059
      4          8           0       -2.329492    0.231885    0.239048
      5          8           0       -1.618280   -0.996135   -0.298113
      6          8           0        1.748428   -1.006683    0.591151
      7          1           0       -2.008534   -1.100812   -1.186223
      8          1           0        0.047394    0.965434    1.371313
      9          1           0       -0.561448    2.248983    0.187554
     10          1           0        2.739534   -0.244497   -0.995118
     11          1           0        1.012066    1.415221   -1.535015
     12          1           0       -0.692071   -0.666197   -0.418370
 ---------------------------------------------------------------------
                    Distance matrix (angstroms):
                    1          2          3          4          5
     1  C    0.000000
     2  C    1.352392   0.000000
     3  C    2.484074   1.478254   0.000000
     4  O    2.682304   3.429332   4.257723   0.000000
     5  O    3.012995   3.203966   3.584622   1.517366   0.000000
     6  O    2.933581   2.395556   1.222596   4.276384   3.482186
     7  H    3.613279   3.624369   4.084857   1.977496   0.975702
     8  H    1.085924   2.128680   2.731194   2.733076   3.067443
     9  H    1.083355   2.131865   3.476280   2.682781   3.447253
    10  H    3.411697   2.196535   1.110049   5.238810   4.476753
    11  H    2.125259   1.089652   2.193617   3.964038   3.776676
    12  H    2.343428   2.278450   2.612600   1.979873   0.990547
                    6          7          8          9         10
     6  O    0.000000
     7  H    4.157244   0.000000
     8  H    2.718716   3.877783   0.000000
     9  H    4.012203   3.899031   1.849181   0.000000
    10  H    2.019769   4.828451   3.783061   4.302631   0.000000
    11  H    3.305817   3.946657   3.095100   2.477569   2.455667
    12  H    2.662911   1.584791   2.532192   2.980349   3.505194
                   11         12
    11  H    0.000000
    12  H    2.912607   0.000000
 Symmetry turned off by external request.
 Stoichiometry    C3H6O3
 Framework group  C1[X(C3H6O3)]
 Deg. of freedom    30
 Full point group                 C1      NOp   1
 Rotational constants (GHZ):           5.1403525           1.9068111           1.5765379
 Standard basis: 6-31+G(d) (6D, 7F)
   126 basis functions,   216 primitive gaussians,   126 cartesian basis functions
    24 alpha electrons       24 beta electrons
       nuclear repulsion energy       223.3149603651 Hartrees.
 NAtoms=   12 NActive=   12 NUniq=   12 SFac= 1.00D+00 NAtFMM=   60 NAOKFM=F Big=F
 Integral buffers will be    131072 words long.
 Raffenetti 2 integral format.
 Two-electron integral symmetry is turned off.
 One-electron integrals computed using PRISM.
 NBasis=   126 RedAO= T EigKep=  8.35D-05  NBF=   126
 NBsUse=   126 1.00D-06 EigRej= -1.00D+00 NBFU=   126
 Initial guess from the checkpoint file:  "/scratch/bell/zhao922/YARP/paper-example/KHP-network/pp_0/IRC-folder/Gau-71580.chk"
 B after Tr=    -0.000005   -0.000001   -0.000012
         Rot=    1.000000    0.000006   -0.000009    0.000001 Ang=   0.00 deg.
 ExpMin= 4.38D-02 ExpMax= 5.48D+03 ExpMxC= 8.25D+02 IAcc=3 IRadAn=         5 AccDes= 0.00D+00
 Harris functional with IExCor=  402 and IRadAn=       5 diagonalized for initial guess.
 HarFok:  IExCor=  402 AccDes= 0.00D+00 IRadAn=         5 IDoV= 1 UseB2=F ITyADJ=14
 ICtDFT=  3500011 ScaDFX=  1.000000  1.000000  1.000000  1.000000
 FoFCou: FMM=F IPFlag=           0 FMFlag=      100000 FMFlg1=           0
         NFxFlg=           0 DoJE=T BraDBF=F KetDBF=T FulRan=T
         wScrn=  0.000000 ICntrl=       500 IOpCl=  0 I1Cent=   200000004 NGrid=           0
         NMat0=    1 NMatS0=      1 NMatT0=    0 NMatD0=    1 NMtDS0=    0 NMtDT0=    0
 Symmetry not used in FoFCou.
 Keep R1 ints in memory in canonical form, NReq=47237219.
 Requested convergence on RMS density matrix=1.00D-08 within 128 cycles.
 Requested convergence on MAX density matrix=1.00D-06.
 Requested convergence on             energy=1.00D-06.
 No special actions if energy rises.
 SCF Done:  E(RB3LYP) =  -343.405149167     A.U. after    8 cycles
            NFock=  8  Conv=0.59D-08     -V/T= 2.0093
 DoSCS=F DFT=T ScalE2(SS,OS)=  1.000000  1.000000
 Range of M.O.s used for correlation:     1   126
 NBasis=   126 NAE=    24 NBE=    24 NFC=     0 NFV=     0
 NROrb=    126 NOA=    24 NOB=    24 NVA=   102 NVB=   102

 **** Warning!!: The largest alpha MO coefficient is  0.37752546D+02

 Symmetrizing basis deriv contribution to polar:
 IMax=3 JMax=2 DiffMx= 0.00D+00
 Calling FoFJK, ICntrl=      2127 FMM=F ISym2X=0 I1Cent= 0 IOpClX= 0 NMat=1 NMatS=1 NMatT=0.
 -------------------------------------------------------------------
 Center     Atomic                   Forces (Hartrees/Bohr)
 Number     Number              X              Y              Z
 -------------------------------------------------------------------
      1        6           0.000027266    0.000052914   -0.000024465
      2        6           0.000098690    0.000105319    0.000017658
      3        6           0.000035436    0.000069481    0.000021533
      4        8           0.000006742    0.000005370   -0.000086179
      5        8          -0.000008790   -0.000132675    0.000147548
      6        8          -0.000202045   -0.000097792   -0.000137905
      7        1           0.000027886   -0.000001600    0.000016773
      8        1          -0.000004293    0.000000507   -0.000002800
      9        1           0.000003274    0.000004986   -0.000002450
     10        1           0.000016872    0.000012701    0.000012171
     11        1           0.000014955    0.000013205    0.000003273
     12        1          -0.000015993   -0.000032416    0.000034843
 -------------------------------------------------------------------
 Cartesian Forces:  Max     0.000202045 RMS     0.000065158
 IRC-IRC-IRC-IRC-IRC-IRC-IRC-IRC-IRC-IRC-IRC-IRC-IRC-IRC-IRC-IRC-IRC-IRC
 Error in corrector energy =           0.0000000023
 Magnitude of corrector gradient =     0.0003997861
 Magnitude of analytic gradient =      0.0003909479
 Magnitude of difference =             0.0000420404
 Angle between gradients (degrees)=    5.9593
 Pt  1 Step number   3 out of a maximum of 100
 Modified Bulirsch-Stoer Extrapolation Cycles:
    EPS =    0.000010000000000
      PEZero:  N= 2 I= 1 D=  7.89D-04 Err=  3.10D-03
      PEZero:  N= 3 I= 2 D=  7.89D-04 Err=  4.92D-03
      PEZero:  N= 3 I= 1 D=  1.58D-03 Err=  4.29D-03
      PEZero:  N= 4 I= 3 D=  3.95D-04 Err=  8.92D-03
      PEZero:  N= 4 I= 2 D=  1.18D-03 Err=  6.97D-03
      PEZero:  N= 4 I= 1 D=  1.97D-03 Err=  5.79D-03
      PEZero:  N= 5 I= 4 D=  3.95D-04 Err=  1.39D-02
      PEZero:  N= 5 I= 3 D=  7.89D-04 Err=  1.19D-02
      PEZero:  N= 5 I= 2 D=  1.58D-03 Err=  8.44D-03
      PEZero:  N= 5 I= 1 D=  2.37D-03 Err=  6.51D-03
      PEZero:  N= 6 I= 5 D=  1.97D-04 Err=  2.43D-02
      PEZero:  N= 6 I= 4 D=  5.92D-04 Err=  1.85D-02
      PEZero:  N= 6 I= 3 D=  9.86D-04 Err=  1.51D-02
      PEZero:  N= 6 I= 2 D=  1.78D-03 Err=  1.06D-02
      PEZero:  N= 6 I= 1 D=  2.56D-03 Err=  8.25D-03
      PEZero:  N= 7 I= 6 D=  1.97D-04 Err=  3.89D-02
      PEZero:  N= 7 I= 5 D=  3.95D-04 Err=  3.41D-02
      PEZero:  N= 7 I= 4 D=  7.89D-04 Err=  2.48D-02
      PEZero:  N= 7 I= 3 D=  1.18D-03 Err=  1.98D-02
      PEZero:  N= 7 I= 2 D=  1.97D-03 Err=  1.37D-02
      PEZero:  N= 7 I= 1 D=  2.76D-03 Err=  1.06D-02
      PEZero:  N= 8 I= 7 D=  9.86D-05 Err=  3.81D-02
      PEZero:  N= 8 I= 6 D=  2.96D-04 Err=  1.19D-02
      PEZero:  N= 8 I= 5 D=  4.93D-04 Err=  6.16D-03
      PEZero:  N= 8 I= 4 D=  8.88D-04 Err=  1.38D-02
      PEZero:  N= 9 I= 8 D=  9.86D-05 Err=  1.09D-02
      PEZero:  N= 9 I= 7 D=  1.97D-04 Err=  2.18D-02
      PEZero:  N=10 I= 9 D=  4.93D-05 Err=  9.06D-05
      PEZero:  N=10 I= 8 D=  1.48D-04 Err=  1.08D-02
      PEZero:  N=11 I=10 D=  4.93D-05 Err=  5.55D-05
      PEZero:  N=11 I= 9 D=  9.86D-05 Err=  7.39D-06
      PEZero:  N=11 I= 8 D=  1.97D-04 Err=  5.96D-03
 Maximum DWI energy   std dev =  0.000000388 at pt   332
 Maximum DWI gradient std dev =  1.424463907 at pt     3
 CORRECTOR INTEGRATION CONVERGENCE:
   Recorrection delta-x convergence threshold:    0.010000
   Delta-x Convergence Met
 Point Number:   1          Path Number:   1
   CHANGE IN THE REACTION COORDINATE =    0.30211
   NET REACTION COORDINATE UP TO THIS POINT =    0.30211
  # OF POINTS ALONG THE PATH =   1
  # OF STEPS =   3

 PES minimum detected on this side of the pathway.
    Magnitude of the gradient =      0.0001164
 Calculation of FORWARD path complete.
 Beginning calculation of the REVERSE path.
 
 Calculating another point on the path.
 IRC-IRC-IRC-IRC-IRC-IRC-IRC-IRC-IRC-IRC-IRC-IRC-IRC-IRC-IRC-IRC-IRC-IRC
                          Input orientation:                          
 ---------------------------------------------------------------------
 Center     Atomic      Atomic             Coordinates (Angstroms)
 Number     Number       Type             X           Y           Z
 ---------------------------------------------------------------------
      1          6           0        0.075565    1.386501    0.380977
      2          6           0        0.908161    0.901360   -0.569437
      3          6           0        1.863751   -0.198118   -0.310018
      4          8           0       -2.327649    0.231030    0.255770
      5          8           0       -1.615802   -0.973027   -0.328681
      6          8           0        1.782058   -0.990054    0.617083
      7          1           0       -2.053576   -1.084192   -1.193957
      8          1           0        0.058955    0.964440    1.381362
      9          1           0       -0.570465    2.235701    0.193778
     10          1           0        2.699770   -0.279346   -1.036660
     11          1           0        0.970917    1.379053   -1.547000
     12          1           0       -0.707140   -0.608979   -0.498622
 ---------------------------------------------------------------------
                    Distance matrix (angstroms):
                    1          2          3          4          5
     1  C    0.000000
     2  C    1.353464   0.000000
     3  C    2.487187   1.479629   0.000000
     4  O    2.669500   3.405992   4.251132   0.000000
     5  O    2.988597   3.153043   3.564845   1.515937   0.000000
     6  O    2.935281   2.397701   1.222028   4.302474   3.527068
     7  H    3.621876   3.619991   4.112411   1.976521   0.976066
     8  H    1.085901   2.128556   2.733057   2.738746   3.079422
     9  H    1.083300   2.132908   3.478892   2.666504   3.414913
    10  H    3.416313   2.195957   1.110646   5.215919   4.427933
    11  H    2.125748   1.089843   2.194252   3.930455   3.702391
    12  H    2.316951   2.212541   2.610337   1.975037   0.993518
                    6          7          8          9         10
     6  O    0.000000
     7  H    4.242737   0.000000
     8  H    2.715374   3.910493   0.000000
     9  H    4.014853   3.891929   1.850035   0.000000
    10  H    2.020437   4.823570   3.790480   4.305099   0.000000
    11  H    3.309663   3.916603   3.094977   2.477904   2.449422
    12  H    2.754291   1.588146   2.568441   2.930921   3.464849
                   11         12
    11  H    0.000000
    12  H    2.804861   0.000000
 Symmetry turned off by external request.
 Stoichiometry    C3H6O3
 Framework group  C1[X(C3H6O3)]
 Deg. of freedom    30
 Full point group                 C1      NOp   1
 Rotational constants (GHZ):           5.1987080           1.8923602           1.5853031
 Standard basis: 6-31+G(d) (6D, 7F)
   126 basis functions,   216 primitive gaussians,   126 cartesian basis functions
    24 alpha electrons       24 beta electrons
       nuclear repulsion energy       223.4987625501 Hartrees.
 NAtoms=   12 NActive=   12 NUniq=   12 SFac= 1.00D+00 NAtFMM=   60 NAOKFM=F Big=F
 Integral buffers will be    131072 words long.
 Raffenetti 2 integral format.
 Two-electron integral symmetry is turned off.
 One-electron integrals computed using PRISM.
 NBasis=   126 RedAO= T EigKep=  8.21D-05  NBF=   126
 NBsUse=   126 1.00D-06 EigRej= -1.00D+00 NBFU=   126
 Initial guess from the checkpoint file:  "/scratch/bell/zhao922/YARP/paper-example/KHP-network/pp_0/IRC-folder/Gau-71580.chk"
 B after Tr=    -0.002680   -0.000231   -0.002446
         Rot=    1.000000   -0.000187   -0.000395    0.000292 Ang=  -0.06 deg.
 ExpMin= 4.38D-02 ExpMax= 5.48D+03 ExpMxC= 8.25D+02 IAcc=3 IRadAn=         5 AccDes= 0.00D+00
 Harris functional with IExCor=  402 and IRadAn=       5 diagonalized for initial guess.
 HarFok:  IExCor=  402 AccDes= 0.00D+00 IRadAn=         5 IDoV= 1 UseB2=F ITyADJ=14
 ICtDFT=  3500011 ScaDFX=  1.000000  1.000000  1.000000  1.000000
 FoFCou: FMM=F IPFlag=           0 FMFlag=      100000 FMFlg1=           0
         NFxFlg=           0 DoJE=T BraDBF=F KetDBF=T FulRan=T
         wScrn=  0.000000 ICntrl=       500 IOpCl=  0 I1Cent=   200000004 NGrid=           0
         NMat0=    1 NMatS0=      1 NMatT0=    0 NMatD0=    1 NMtDS0=    0 NMtDT0=    0
 Symmetry not used in FoFCou.
 Keep R1 ints in memory in canonical form, NReq=47237219.
 Requested convergence on RMS density matrix=1.00D-08 within 128 cycles.
 Requested convergence on MAX density matrix=1.00D-06.
 Requested convergence on             energy=1.00D-06.
 No special actions if energy rises.
 SCF Done:  E(RB3LYP) =  -343.405143869     A.U. after   13 cycles
            NFock= 13  Conv=0.34D-08     -V/T= 2.0093
 DoSCS=F DFT=T ScalE2(SS,OS)=  1.000000  1.000000
 Range of M.O.s used for correlation:     1   126
 NBasis=   126 NAE=    24 NBE=    24 NFC=     0 NFV=     0
 NROrb=    126 NOA=    24 NOB=    24 NVA=   102 NVB=   102

 **** Warning!!: The largest alpha MO coefficient is  0.38468466D+02

 Symmetrizing basis deriv contribution to polar:
 IMax=3 JMax=2 DiffMx= 0.00D+00
 G2DrvN: will do    13 centers at a time, making    1 passes.
 Calling FoFCou, ICntrl=  3107 FMM=F I1Cent=   0 AccDes= 0.00D+00.
 End of G2Drv F.D. properties file   721 does not exist.
 End of G2Drv F.D. properties file   722 does not exist.
 End of G2Drv F.D. properties file   788 does not exist.
          IDoAtm=111111111111
          Differentiating once with respect to nuclear coordinates.
 Keep R1 ints in memory in canonical form, NReq=47193234.
          There are    39 degrees of freedom in the 1st order CPHF.  IDoFFX=6 NUNeed=     0.
     33 vectors produced by pass  0 Test12= 6.28D-15 2.56D-09 XBig12= 1.24D-01 1.43D-01.
 AX will form    33 AO Fock derivatives at one time.
     33 vectors produced by pass  1 Test12= 6.28D-15 2.56D-09 XBig12= 9.17D-03 3.04D-02.
     33 vectors produced by pass  2 Test12= 6.28D-15 2.56D-09 XBig12= 9.28D-05 1.41D-03.
     33 vectors produced by pass  3 Test12= 6.28D-15 2.56D-09 XBig12= 4.56D-07 1.27D-04.
     33 vectors produced by pass  4 Test12= 6.28D-15 2.56D-09 XBig12= 7.37D-10 4.46D-06.
     29 vectors produced by pass  5 Test12= 6.28D-15 2.56D-09 XBig12= 6.83D-13 1.44D-07.
      5 vectors produced by pass  6 Test12= 6.28D-15 2.56D-09 XBig12= 6.04D-16 3.78D-09.
 InvSVY:  IOpt=1 It=  1 EMax= 1.89D-15
 Solved reduced A of dimension   199 with    33 vectors.
 End of Minotr F.D. properties file   721 does not exist.
 End of Minotr F.D. properties file   722 does not exist.
 End of Minotr F.D. properties file   788 does not exist.
 Calling FoFJK, ICntrl=    100127 FMM=F ISym2X=0 I1Cent= 0 IOpClX= 0 NMat=1 NMatS=1 NMatT=0.
 -------------------------------------------------------------------
 Center     Atomic                   Forces (Hartrees/Bohr)
 Number     Number              X              Y              Z
 -------------------------------------------------------------------
      1        6          -0.000014049   -0.000057179    0.000013997
      2        6          -0.000063672   -0.000105609   -0.000000014
      3        6          -0.000013325   -0.000348878    0.000276081
      4        8           0.000099581   -0.000082530    0.000038993
      5        8           0.000057204    0.000235287   -0.000436953
      6        8           0.000201684    0.000470807   -0.000386853
      7        1           0.000118720    0.000032744    0.000251409
      8        1           0.000007634    0.000013765   -0.000037675
      9        1          -0.000000110   -0.000000236    0.000004073
     10        1          -0.000140442   -0.000046332    0.000153465
     11        1          -0.000004201   -0.000018974    0.000037036
     12        1          -0.000249025   -0.000092867    0.000086441
 -------------------------------------------------------------------
 Cartesian Forces:  Max     0.000470807 RMS     0.000174970
 IRC-IRC-IRC-IRC-IRC-IRC-IRC-IRC-IRC-IRC-IRC-IRC-IRC-IRC-IRC-IRC-IRC-IRC
 Pt  2 Step number   1 out of a maximum of 100
 Modified Bulirsch-Stoer Extrapolation Cycles:
    EPS =    0.000010000000000
      PEZero:  N= 2 I= 1 D=  7.89D-04 Err=  2.32D-03
      PEZero:  N= 3 I= 2 D=  7.89D-04 Err=  3.45D-03
      PEZero:  N= 3 I= 1 D=  1.58D-03 Err=  2.85D-03
      PEZero:  N= 4 I= 3 D=  3.95D-04 Err=  5.77D-03
      PEZero:  N= 4 I= 2 D=  1.18D-03 Err=  4.24D-03
      PEZero:  N= 4 I= 1 D=  1.97D-03 Err=  3.38D-03
      PEZero:  N= 5 I= 4 D=  3.95D-04 Err=  9.02D-03
      PEZero:  N= 5 I= 3 D=  7.89D-04 Err=  7.76D-03
      PEZero:  N= 5 I= 2 D=  1.58D-03 Err=  5.64D-03
      PEZero:  N= 5 I= 1 D=  2.37D-03 Err=  4.52D-03
      PEZero:  N= 6 I= 5 D=  1.97D-04 Err=  1.52D-02
      PEZero:  N= 6 I= 4 D=  5.92D-04 Err=  1.12D-02
      PEZero:  N= 6 I= 3 D=  9.86D-04 Err=  8.77D-03
      PEZero:  N= 6 I= 2 D=  1.78D-03 Err=  5.91D-03
      PEZero:  N= 6 I= 1 D=  2.56D-03 Err=  4.42D-03
      PEZero:  N= 7 I= 6 D=  1.97D-04 Err=  2.20D-02
      PEZero:  N= 7 I= 5 D=  3.95D-04 Err=  1.79D-02
      PEZero:  N= 7 I= 4 D=  7.89D-04 Err=  1.23D-02
      PEZero:  N= 7 I= 3 D=  1.18D-03 Err=  9.33D-03
      PEZero:  N= 7 I= 2 D=  1.97D-03 Err=  6.29D-03
      PEZero:  N= 7 I= 1 D=  2.76D-03 Err=  4.76D-03
      PEZero:  N= 8 I= 7 D=  9.86D-05 Err=  3.64D-02
      PEZero:  N= 8 I= 6 D=  2.96D-04 Err=  2.65D-02
      PEZero:  N= 8 I= 5 D=  4.93D-04 Err=  2.13D-02
      PEZero:  N= 8 I= 4 D=  8.88D-04 Err=  1.49D-02
      PEZero:  N= 8 I= 3 D=  1.28D-03 Err=  1.17D-02
      PEZero:  N= 8 I= 2 D=  2.07D-03 Err=  7.99D-03
      PEZero:  N= 8 I= 1 D=  2.86D-03 Err=  6.12D-03
      PEZero:  N= 9 I= 8 D=  9.86D-05 Err=  3.59D-02
      PEZero:  N= 9 I= 7 D=  1.97D-04 Err=  1.86D-02
      PEZero:  N= 9 I= 6 D=  3.95D-04 Err=  5.45D-03
      PEZero:  N= 9 I= 5 D=  5.92D-04 Err=  2.83D-03
      PEZero:  N= 9 I= 4 D=  9.86D-04 Err=  5.19D-03
      PEZero:  N=10 I= 9 D=  4.93D-05 Err=  5.38D-03
      PEZero:  N=10 I= 8 D=  1.48D-04 Err=  2.88D-02
      PEZero:  N=11 I=10 D=  4.93D-05 Err=  4.19D-05
      PEZero:  N=11 I= 9 D=  9.86D-05 Err=  5.31D-03
 Maximum DWI energy   std dev =  0.000000458 at pt     5
 Maximum DWI gradient std dev =  0.722554626 at pt   229
 WARNING: Bulirsch-Stoer Method is not Converging
 CORRECTOR INTEGRATION CONVERGENCE:
   Recorrection delta-x convergence threshold:    0.010000
   Delta-x Convergence NOT Met
 IRC-IRC-IRC-IRC-IRC-IRC-IRC-IRC-IRC-IRC-IRC-IRC-IRC-IRC-IRC-IRC-IRC-IRC
                          Input orientation:                          
 ---------------------------------------------------------------------
 Center     Atomic      Atomic             Coordinates (Angstroms)
 Number     Number       Type             X           Y           Z
 ---------------------------------------------------------------------
      1          6           0        0.075587    1.386596    0.380774
      2          6           0        0.908110    0.901285   -0.569554
      3          6           0        1.863488   -0.198218   -0.310025
      4          8           0       -2.326918    0.230951    0.256042
      5          8           0       -1.616348   -0.973302   -0.328828
      6          8           0        1.781966   -0.989602    0.617098
      7          1           0       -2.051724   -1.081954   -1.195289
      8          1           0        0.059117    0.964803    1.381214
      9          1           0       -0.570348    2.235855    0.193528
     10          1           0        2.699209   -0.280132   -1.036461
     11          1           0        0.970856    1.378802   -1.547135
     12          1           0       -0.706675   -0.611268   -0.495312
 ---------------------------------------------------------------------
                    Distance matrix (angstroms):
                    1          2          3          4          5
     1  C    0.000000
     2  C    1.353420   0.000000
     3  C    2.487052   1.479530   0.000000
     4  O    2.668915   3.405343   4.250191   0.000000
     5  O    2.989197   3.153556   3.565160   1.515655   0.000000
     6  O    2.934944   2.397336   1.221676   4.301516   3.527546
     7  H    3.619830   3.617374   4.110179   1.976314   0.975763
     8  H    1.085846   2.128455   2.732886   2.738195   3.080207
     9  H    1.083298   2.132888   3.478769   2.666287   3.415503
    10  H    3.416128   2.195856   1.110337   5.214760   4.427783
    11  H    2.125653   1.089782   2.194135   3.929926   3.702741
    12  H    2.317525   2.213788   2.609728   1.974601   0.993121
                    6          7          8          9         10
     6  O    0.000000
     7  H    4.241516   0.000000
     8  H    2.715103   3.909377   0.000000
     9  H    4.014519   3.889877   1.849972   0.000000
    10  H    2.019639   4.820738   3.790133   4.305005   0.000000
    11  H    3.309252   3.913452   3.094817   2.477853   2.449501
    12  H    2.752077   1.587662   2.567447   2.932438   3.464469
                   11         12
    11  H    0.000000
    12  H    2.807280   0.000000
 Symmetry turned off by external request.
 Stoichiometry    C3H6O3
 Framework group  C1[X(C3H6O3)]
 Deg. of freedom    30
 Full point group                 C1      NOp   1
 Rotational constants (GHZ):           5.1987655           1.8927385           1.5856082
 Standard basis: 6-31+G(d) (6D, 7F)
   126 basis functions,   216 primitive gaussians,   126 cartesian basis functions
    24 alpha electrons       24 beta electrons
       nuclear repulsion energy       223.5240368463 Hartrees.
 NAtoms=   12 NActive=   12 NUniq=   12 SFac= 1.00D+00 NAtFMM=   60 NAOKFM=F Big=F
 Integral buffers will be    131072 words long.
 Raffenetti 2 integral format.
 Two-electron integral symmetry is turned off.
 One-electron integrals computed using PRISM.
 NBasis=   126 RedAO= T EigKep=  8.21D-05  NBF=   126
 NBsUse=   126 1.00D-06 EigRej= -1.00D+00 NBFU=   126
 Initial guess from the checkpoint file:  "/scratch/bell/zhao922/YARP/paper-example/KHP-network/pp_0/IRC-folder/Gau-71580.chk"
 B after Tr=     0.000040   -0.000006    0.000038
         Rot=    1.000000    0.000053   -0.000016    0.000001 Ang=   0.01 deg.
 ExpMin= 4.38D-02 ExpMax= 5.48D+03 ExpMxC= 8.25D+02 IAcc=3 IRadAn=         5 AccDes= 0.00D+00
 Harris functional with IExCor=  402 and IRadAn=       5 diagonalized for initial guess.
 HarFok:  IExCor=  402 AccDes= 0.00D+00 IRadAn=         5 IDoV= 1 UseB2=F ITyADJ=14
 ICtDFT=  3500011 ScaDFX=  1.000000  1.000000  1.000000  1.000000
 FoFCou: FMM=F IPFlag=           0 FMFlag=      100000 FMFlg1=           0
         NFxFlg=           0 DoJE=T BraDBF=F KetDBF=T FulRan=T
         wScrn=  0.000000 ICntrl=       500 IOpCl=  0 I1Cent=   200000004 NGrid=           0
         NMat0=    1 NMatS0=      1 NMatT0=    0 NMatD0=    1 NMtDS0=    0 NMtDT0=    0
 Symmetry not used in FoFCou.
 Keep R1 ints in memory in canonical form, NReq=47237219.
 Requested convergence on RMS density matrix=1.00D-08 within 128 cycles.
 Requested convergence on MAX density matrix=1.00D-06.
 Requested convergence on             energy=1.00D-06.
 No special actions if energy rises.
 SCF Done:  E(RB3LYP) =  -343.405144645     A.U. after   10 cycles
            NFock= 10  Conv=0.29D-08     -V/T= 2.0093
 DoSCS=F DFT=T ScalE2(SS,OS)=  1.000000  1.000000
 Range of M.O.s used for correlation:     1   126
 NBasis=   126 NAE=    24 NBE=    24 NFC=     0 NFV=     0
 NROrb=    126 NOA=    24 NOB=    24 NVA=   102 NVB=   102

 **** Warning!!: The largest alpha MO coefficient is  0.38482804D+02

 Symmetrizing basis deriv contribution to polar:
 IMax=3 JMax=2 DiffMx= 0.00D+00
 Calling FoFJK, ICntrl=      2127 FMM=F ISym2X=0 I1Cent= 0 IOpClX= 0 NMat=1 NMatS=1 NMatT=0.
 -------------------------------------------------------------------
 Center     Atomic                   Forces (Hartrees/Bohr)
 Number     Number              X              Y              Z
 -------------------------------------------------------------------
      1        6          -0.000018517   -0.000030222    0.000010595
      2        6          -0.000064036   -0.000067891   -0.000014379
      3        6          -0.000028649   -0.000040580   -0.000014564
      4        8           0.000027044   -0.000004612    0.000068915
      5        8          -0.000002816    0.000079332   -0.000126031
      6        8           0.000117037    0.000068450    0.000094892
      7        1          -0.000003485    0.000009032    0.000000882
      8        1           0.000002815    0.000000343    0.000002028
      9        1          -0.000001993   -0.000002859    0.000001072
     10        1          -0.000009676   -0.000008722   -0.000008615
     11        1          -0.000009462   -0.000008606   -0.000002847
     12        1          -0.000008262    0.000006334   -0.000011947
 -------------------------------------------------------------------
 Cartesian Forces:  Max     0.000126031 RMS     0.000043724
 IRC-IRC-IRC-IRC-IRC-IRC-IRC-IRC-IRC-IRC-IRC-IRC-IRC-IRC-IRC-IRC-IRC-IRC
 Error in corrector energy =           0.0000000060
 Magnitude of corrector gradient =     0.0002587400
 Magnitude of analytic gradient =      0.0002623469
 Magnitude of difference =             0.0000119027
 Angle between gradients (degrees)=    2.4947
 Pt  2 Step number   2 out of a maximum of 100
 Modified Bulirsch-Stoer Extrapolation Cycles:
    EPS =    0.000010000000000
      PEZero:  N= 2 I= 1 D=  7.89D-04 Err=  2.71D-03
      PEZero:  N= 3 I= 2 D=  7.89D-04 Err=  3.85D-03
      PEZero:  N= 3 I= 1 D=  1.58D-03 Err=  3.06D-03
      PEZero:  N= 4 I= 3 D=  3.95D-04 Err=  6.30D-03
      PEZero:  N= 4 I= 2 D=  1.18D-03 Err=  4.58D-03
      PEZero:  N= 4 I= 1 D=  1.97D-03 Err=  3.66D-03
      PEZero:  N= 5 I= 4 D=  3.95D-04 Err=  8.93D-03
      PEZero:  N= 5 I= 3 D=  7.89D-04 Err=  7.11D-03
      PEZero:  N= 5 I= 2 D=  1.58D-03 Err=  4.82D-03
      PEZero:  N= 5 I= 1 D=  2.37D-03 Err=  3.61D-03
      PEZero:  N= 6 I= 5 D=  1.97D-04 Err=  1.40D-02
      PEZero:  N= 6 I= 4 D=  5.92D-04 Err=  9.82D-03
      PEZero:  N= 6 I= 3 D=  9.86D-04 Err=  7.52D-03
      PEZero:  N= 6 I= 2 D=  1.78D-03 Err=  5.08D-03
      PEZero:  N= 6 I= 1 D=  2.56D-03 Err=  3.85D-03
      PEZero:  N= 7 I= 6 D=  1.97D-04 Err=  2.00D-02
      PEZero:  N= 7 I= 5 D=  3.95D-04 Err=  1.60D-02
      PEZero:  N= 7 I= 4 D=  7.89D-04 Err=  1.11D-02
      PEZero:  N= 7 I= 3 D=  1.18D-03 Err=  8.59D-03
      PEZero:  N= 7 I= 2 D=  1.97D-03 Err=  5.86D-03
      PEZero:  N= 7 I= 1 D=  2.76D-03 Err=  4.47D-03
      PEZero:  N= 8 I= 7 D=  9.86D-05 Err=  3.32D-02
      PEZero:  N= 8 I= 6 D=  2.96D-04 Err=  2.42D-02
      PEZero:  N= 8 I= 5 D=  4.93D-04 Err=  1.95D-02
      PEZero:  N= 8 I= 4 D=  8.88D-04 Err=  1.36D-02
      PEZero:  N= 8 I= 3 D=  1.28D-03 Err=  1.06D-02
      PEZero:  N= 8 I= 2 D=  2.07D-03 Err=  7.23D-03
      PEZero:  N= 8 I= 1 D=  2.86D-03 Err=  5.52D-03
      PEZero:  N= 9 I= 8 D=  9.86D-05 Err=  3.99D-02
      PEZero:  N= 9 I= 7 D=  1.97D-04 Err=  2.67D-02
      PEZero:  N= 9 I= 6 D=  3.95D-04 Err=  1.46D-02
      PEZero:  N= 9 I= 5 D=  5.92D-04 Err=  8.11D-03
      PEZero:  N= 9 I= 4 D=  9.86D-04 Err=  3.77D-03
      PEZero:  N= 9 I= 3 D=  1.38D-03 Err=  1.71D-03
      PEZero:  N= 9 I= 2 D=  2.17D-03 Err=  6.75D-04
      PEZero:  N= 9 I= 1 D=  2.96D-03 Err=  3.55D-04
      PEZero:  N=10 I= 9 D=  4.93D-05 Err=  9.61D-03
      PEZero:  N=10 I= 8 D=  1.48D-04 Err=  2.71D-02
      PEZero:  N=11 I=10 D=  4.93D-05 Err=  5.12D-05
      PEZero:  N=11 I= 9 D=  9.86D-05 Err=  9.53D-03
 Maximum DWI energy   std dev =  0.000000293 at pt     2
 Maximum DWI gradient std dev =  1.234599530 at pt     3
 WARNING: Bulirsch-Stoer Method is not Converging
 CORRECTOR INTEGRATION CONVERGENCE:
   Recorrection delta-x convergence threshold:    0.010000
   Delta-x Convergence NOT Met
 IRC-IRC-IRC-IRC-IRC-IRC-IRC-IRC-IRC-IRC-IRC-IRC-IRC-IRC-IRC-IRC-IRC-IRC
                          Input orientation:                          
 ---------------------------------------------------------------------
 Center     Atomic      Atomic             Coordinates (Angstroms)
 Number     Number       Type             X           Y           Z
 ---------------------------------------------------------------------
      1          6           0        0.075563    1.386617    0.380787
      2          6           0        0.908162    0.901336   -0.569489
      3          6           0        1.863508   -0.198153   -0.309888
      4          8           0       -2.326651    0.230940    0.256131
      5          8           0       -1.616491   -0.973382   -0.329099
      6          8           0        1.781808   -0.989635    0.617143
      7          1           0       -2.051350   -1.081157   -1.195911
      8          1           0        0.059071    0.964851    1.381238
      9          1           0       -0.570363    2.235875    0.193511
     10          1           0        2.699382   -0.279989   -1.036149
     11          1           0        0.970964    1.378854   -1.547066
     12          1           0       -0.706515   -0.611856   -0.494791
 ---------------------------------------------------------------------
                    Distance matrix (angstroms):
                    1          2          3          4          5
     1  C    0.000000
     2  C    1.353419   0.000000
     3  C    2.487021   1.479512   0.000000
     4  O    2.668662   3.405157   4.249933   0.000000
     5  O    2.989411   3.153764   3.565353   1.515656   0.000000
     6  O    2.934912   2.397316   1.221681   4.301113   3.527616
     7  H    3.619343   3.616820   4.109847   1.976313   0.975747
     8  H    1.085845   2.128456   2.732852   2.737911   3.080504
     9  H    1.083297   2.132885   3.478740   2.666127   3.415675
    10  H    3.416095   2.195852   1.110332   5.214599   4.428033
    11  H    2.125658   1.089781   2.194128   3.929820   3.702889
    12  H    2.317795   2.214162   2.609667   1.974596   0.993081
                    6          7          8          9         10
     6  O    0.000000
     7  H    4.241302   0.000000
     8  H    2.715084   3.909184   0.000000
     9  H    4.014485   3.889282   1.849969   0.000000
    10  H    2.019632   4.820461   3.790070   4.304981   0.000000
    11  H    3.309231   3.912716   3.094819   2.477858   2.449535
    12  H    2.751521   1.587575   2.567413   2.932894   3.464584
                   11         12
    11  H    0.000000
    12  H    2.807872   0.000000
 Symmetry turned off by external request.
 Stoichiometry    C3H6O3
 Framework group  C1[X(C3H6O3)]
 Deg. of freedom    30
 Full point group                 C1      NOp   1
 Rotational constants (GHZ):           5.1983874           1.8928616           1.5856875
 Standard basis: 6-31+G(d) (6D, 7F)
   126 basis functions,   216 primitive gaussians,   126 cartesian basis functions
    24 alpha electrons       24 beta electrons
       nuclear repulsion energy       223.5257359058 Hartrees.
 NAtoms=   12 NActive=   12 NUniq=   12 SFac= 1.00D+00 NAtFMM=   60 NAOKFM=F Big=F
 Integral buffers will be    131072 words long.
 Raffenetti 2 integral format.
 Two-electron integral symmetry is turned off.
 One-electron integrals computed using PRISM.
 NBasis=   126 RedAO= T EigKep=  8.21D-05  NBF=   126
 NBsUse=   126 1.00D-06 EigRej= -1.00D+00 NBFU=   126
 Initial guess from the checkpoint file:  "/scratch/bell/zhao922/YARP/paper-example/KHP-network/pp_0/IRC-folder/Gau-71580.chk"
 B after Tr=     0.000027    0.000009    0.000015
         Rot=    1.000000   -0.000032    0.000025    0.000004 Ang=  -0.00 deg.
 ExpMin= 4.38D-02 ExpMax= 5.48D+03 ExpMxC= 8.25D+02 IAcc=3 IRadAn=         5 AccDes= 0.00D+00
 Harris functional with IExCor=  402 and IRadAn=       5 diagonalized for initial guess.
 HarFok:  IExCor=  402 AccDes= 0.00D+00 IRadAn=         5 IDoV= 1 UseB2=F ITyADJ=14
 ICtDFT=  3500011 ScaDFX=  1.000000  1.000000  1.000000  1.000000
 FoFCou: FMM=F IPFlag=           0 FMFlag=      100000 FMFlg1=           0
         NFxFlg=           0 DoJE=T BraDBF=F KetDBF=T FulRan=T
         wScrn=  0.000000 ICntrl=       500 IOpCl=  0 I1Cent=   200000004 NGrid=           0
         NMat0=    1 NMatS0=      1 NMatT0=    0 NMatD0=    1 NMtDS0=    0 NMtDT0=    0
 Symmetry not used in FoFCou.
 Keep R1 ints in memory in canonical form, NReq=47237219.
 Requested convergence on RMS density matrix=1.00D-08 within 128 cycles.
 Requested convergence on MAX density matrix=1.00D-06.
 Requested convergence on             energy=1.00D-06.
 No special actions if energy rises.
 SCF Done:  E(RB3LYP) =  -343.405144633     A.U. after    8 cycles
            NFock=  8  Conv=0.65D-08     -V/T= 2.0093
 DoSCS=F DFT=T ScalE2(SS,OS)=  1.000000  1.000000
 Range of M.O.s used for correlation:     1   126
 NBasis=   126 NAE=    24 NBE=    24 NFC=     0 NFV=     0
 NROrb=    126 NOA=    24 NOB=    24 NVA=   102 NVB=   102

 **** Warning!!: The largest alpha MO coefficient is  0.38482543D+02

 Symmetrizing basis deriv contribution to polar:
 IMax=3 JMax=2 DiffMx= 0.00D+00
 Calling FoFJK, ICntrl=      2127 FMM=F ISym2X=0 I1Cent= 0 IOpClX= 0 NMat=1 NMatS=1 NMatT=0.
 -------------------------------------------------------------------
 Center     Atomic                   Forces (Hartrees/Bohr)
 Number     Number              X              Y              Z
 -------------------------------------------------------------------
      1        6          -0.000018142   -0.000029727    0.000011162
      2        6          -0.000062713   -0.000066317   -0.000013935
      3        6          -0.000028696   -0.000038467   -0.000016524
      4        8           0.000023057   -0.000006711    0.000065611
      5        8          -0.000009843    0.000074288   -0.000104949
      6        8           0.000115178    0.000062860    0.000098443
      7        1          -0.000014180    0.000005959   -0.000011150
      8        1           0.000002740    0.000000331    0.000001898
      9        1          -0.000001940   -0.000002748    0.000001041
     10        1          -0.000007800   -0.000008191   -0.000010650
     11        1          -0.000009321   -0.000008487   -0.000002906
     12        1           0.000011661    0.000017209   -0.000018042
 -------------------------------------------------------------------
 Cartesian Forces:  Max     0.000115178 RMS     0.000041636
 IRC-IRC-IRC-IRC-IRC-IRC-IRC-IRC-IRC-IRC-IRC-IRC-IRC-IRC-IRC-IRC-IRC-IRC
 Error in corrector energy =          -0.0000000027
 Magnitude of corrector gradient =     0.0002550911
 Magnitude of analytic gradient =      0.0002498189
 Magnitude of difference =             0.0000257464
 Angle between gradients (degrees)=    5.7221
 Pt  2 Step number   3 out of a maximum of 100
 Modified Bulirsch-Stoer Extrapolation Cycles:
    EPS =    0.000010000000000
      PEZero:  N= 2 I= 1 D=  7.89D-04 Err=  2.72D-03
      PEZero:  N= 3 I= 2 D=  7.89D-04 Err=  3.86D-03
      PEZero:  N= 3 I= 1 D=  1.58D-03 Err=  3.07D-03
      PEZero:  N= 4 I= 3 D=  3.95D-04 Err=  6.30D-03
      PEZero:  N= 4 I= 2 D=  1.18D-03 Err=  4.54D-03
      PEZero:  N= 4 I= 1 D=  1.97D-03 Err=  3.61D-03
      PEZero:  N= 5 I= 4 D=  3.95D-04 Err=  8.92D-03
      PEZero:  N= 5 I= 3 D=  7.89D-04 Err=  7.09D-03
      PEZero:  N= 5 I= 2 D=  1.58D-03 Err=  4.82D-03
      PEZero:  N= 5 I= 1 D=  2.37D-03 Err=  3.62D-03
      PEZero:  N= 6 I= 5 D=  1.97D-04 Err=  1.40D-02
      PEZero:  N= 6 I= 4 D=  5.92D-04 Err=  9.78D-03
      PEZero:  N= 6 I= 3 D=  9.86D-04 Err=  7.48D-03
      PEZero:  N= 6 I= 2 D=  1.78D-03 Err=  5.05D-03
      PEZero:  N= 6 I= 1 D=  2.56D-03 Err=  3.84D-03
      PEZero:  N= 7 I= 6 D=  1.97D-04 Err=  1.99D-02
      PEZero:  N= 7 I= 5 D=  3.95D-04 Err=  1.59D-02
      PEZero:  N= 7 I= 4 D=  7.89D-04 Err=  1.11D-02
      PEZero:  N= 7 I= 3 D=  1.18D-03 Err=  8.56D-03
      PEZero:  N= 7 I= 2 D=  1.97D-03 Err=  5.84D-03
      PEZero:  N= 7 I= 1 D=  2.76D-03 Err=  4.46D-03
      PEZero:  N= 8 I= 7 D=  9.86D-05 Err=  3.30D-02
      PEZero:  N= 8 I= 6 D=  2.96D-04 Err=  2.42D-02
      PEZero:  N= 8 I= 5 D=  4.93D-04 Err=  1.95D-02
      PEZero:  N= 8 I= 4 D=  8.88D-04 Err=  1.36D-02
      PEZero:  N= 8 I= 3 D=  1.28D-03 Err=  1.06D-02
      PEZero:  N= 8 I= 2 D=  2.07D-03 Err=  7.23D-03
      PEZero:  N= 8 I= 1 D=  2.86D-03 Err=  5.52D-03
      PEZero:  N= 9 I= 8 D=  9.86D-05 Err=  3.96D-02
      PEZero:  N= 9 I= 7 D=  1.97D-04 Err=  2.64D-02
      PEZero:  N= 9 I= 6 D=  3.95D-04 Err=  1.43D-02
      PEZero:  N= 9 I= 5 D=  5.92D-04 Err=  7.84D-03
      PEZero:  N= 9 I= 4 D=  9.86D-04 Err=  3.55D-03
      PEZero:  N= 9 I= 3 D=  1.38D-03 Err=  1.53D-03
      PEZero:  N= 9 I= 2 D=  2.17D-03 Err=  5.96D-04
      PEZero:  N= 9 I= 1 D=  2.96D-03 Err=  2.88D-04
      PEZero:  N=10 I= 9 D=  4.93D-05 Err=  9.66D-03
      PEZero:  N=10 I= 8 D=  1.48D-04 Err=  2.68D-02
      PEZero:  N=11 I=10 D=  4.93D-05 Err=  5.07D-05
      PEZero:  N=11 I= 9 D=  9.86D-05 Err=  9.58D-03
 Maximum DWI energy   std dev =  0.000000262 at pt     2
 Maximum DWI gradient std dev =  1.214807289 at pt    33
 WARNING: Bulirsch-Stoer Method is not Converging
 CORRECTOR INTEGRATION CONVERGENCE:
   Recorrection delta-x convergence threshold:    0.010000
   Delta-x Convergence NOT Met
 IRC-IRC-IRC-IRC-IRC-IRC-IRC-IRC-IRC-IRC-IRC-IRC-IRC-IRC-IRC-IRC-IRC-IRC
                          Input orientation:                          
 ---------------------------------------------------------------------
 Center     Atomic      Atomic             Coordinates (Angstroms)
 Number     Number       Type             X           Y           Z
 ---------------------------------------------------------------------
      1          6           0        0.075557    1.386608    0.380787
      2          6           0        0.908160    0.901330   -0.569489
[...]
      PEZero:  N= 9 I= 6 D=  3.95D-04 Err=  1.44D-02
      PEZero:  N= 9 I= 5 D=  5.92D-04 Err=  7.93D-03
      PEZero:  N= 9 I= 4 D=  9.86D-04 Err=  3.62D-03
      PEZero:  N= 9 I= 3 D=  1.38D-03 Err=  1.59D-03
      PEZero:  N= 9 I= 2 D=  2.17D-03 Err=  6.21D-04
      PEZero:  N= 9 I= 1 D=  2.96D-03 Err=  3.09D-04
      PEZero:  N=10 I= 9 D=  4.93D-05 Err=  9.66D-03
      PEZero:  N=10 I= 8 D=  1.48D-04 Err=  2.69D-02
      PEZero:  N=11 I=10 D=  4.93D-05 Err=  5.08D-05
      PEZero:  N=11 I= 9 D=  9.86D-05 Err=  9.58D-03
 Maximum DWI energy   std dev =  0.000000268 at pt     2
 Maximum DWI gradient std dev =  1.217334559 at pt     3
 WARNING: Bulirsch-Stoer Method is not Converging
 CORRECTOR INTEGRATION CONVERGENCE:
   Recorrection delta-x convergence threshold:    0.010000
   Delta-x Convergence NOT Met
 IRC-IRC-IRC-IRC-IRC-IRC-IRC-IRC-IRC-IRC-IRC-IRC-IRC-IRC-IRC-IRC-IRC-IRC
                          Input orientation:                          
 ---------------------------------------------------------------------
 Center     Atomic      Atomic             Coordinates (Angstroms)
 Number     Number       Type             X           Y           Z
 ---------------------------------------------------------------------
      1          6           0        0.075559    1.386610    0.380788
      2          6           0        0.908159    0.901330   -0.569489
      3          6           0        1.863519   -0.198151   -0.309888
      4          8           0       -2.326675    0.230937    0.256116
      5          8           0       -1.616465   -0.973367   -0.329067
      6          8           0        1.781827   -0.989635    0.617143
      7          1           0       -2.051428   -1.081268   -1.195823
      8          1           0        0.059064    0.964841    1.381237
      9          1           0       -0.570368    2.235868    0.193511
     10          1           0        2.699395   -0.279972   -1.036153
     11          1           0        0.970964    1.378854   -1.547063
     12          1           0       -0.706525   -0.611751   -0.494904
 ---------------------------------------------------------------------
                    Distance matrix (angstroms):
                    1          2          3          4          5
     1  C    0.000000
     2  C    1.353420   0.000000
     3  C    2.487027   1.479515   0.000000
     4  O    2.668679   3.405173   4.249964   0.000000
     5  O    2.989370   3.153731   3.565335   1.515647   0.000000
     6  O    2.934920   2.397319   1.221682   4.301154   3.527601
     7  H    3.619420   3.616925   4.109938   1.976302   0.975757
     8  H    1.085844   2.128456   2.732857   2.737929   3.080452
     9  H    1.083297   2.132886   3.478744   2.666136   3.415640
    10  H    3.416099   2.195854   1.110336   5.214630   4.428026
    11  H    2.125657   1.089782   2.194129   3.929833   3.702869
    12  H    2.317744   2.214087   2.609678   1.974598   0.993105
                    6          7          8          9         10
     6  O    0.000000
     7  H    4.241355   0.000000
     8  H    2.715093   3.909217   0.000000
     9  H    4.014493   3.889368   1.849969   0.000000
    10  H    2.019639   4.820570   3.790077   4.304982   0.000000
    11  H    3.309233   3.912853   3.094819   2.477857   2.449532
    12  H    2.751607   1.587608   2.567425   2.932812   3.464581
                   11         12
    11  H    0.000000
    12  H    2.807759   0.000000
 Symmetry turned off by external request.
 Stoichiometry    C3H6O3
 Framework group  C1[X(C3H6O3)]
 Deg. of freedom    30
 Full point group                 C1      NOp   1
 Rotational constants (GHZ):           5.1984598           1.8928491           1.5856799
 Standard basis: 6-31+G(d) (6D, 7F)
   126 basis functions,   216 primitive gaussians,   126 cartesian basis functions
    24 alpha electrons       24 beta electrons
       nuclear repulsion energy       223.5256164371 Hartrees.
 NAtoms=   12 NActive=   12 NUniq=   12 SFac= 1.00D+00 NAtFMM=   60 NAOKFM=F Big=F
 Integral buffers will be    131072 words long.
 Raffenetti 2 integral format.
 Two-electron integral symmetry is turned off.
 One-electron integrals computed using PRISM.
 NBasis=   126 RedAO= T EigKep=  8.21D-05  NBF=   126
 NBsUse=   126 1.00D-06 EigRej= -1.00D+00 NBFU=   126
 Initial guess from the checkpoint file:  "/scratch/bell/zhao922/YARP/paper-example/KHP-network/pp_0/IRC-folder/Gau-71580.chk"
 B after Tr=     0.000000    0.000000    0.000000
         Rot=    1.000000    0.000000   -0.000000   -0.000000 Ang=   0.00 deg.
 ExpMin= 4.38D-02 ExpMax= 5.48D+03 ExpMxC= 8.25D+02 IAcc=3 IRadAn=         5 AccDes= 0.00D+00
 Harris functional with IExCor=  402 and IRadAn=       5 diagonalized for initial guess.
 HarFok:  IExCor=  402 AccDes= 0.00D+00 IRadAn=         5 IDoV= 1 UseB2=F ITyADJ=14
 ICtDFT=  3500011 ScaDFX=  1.000000  1.000000  1.000000  1.000000
 FoFCou: FMM=F IPFlag=           0 FMFlag=      100000 FMFlg1=           0
         NFxFlg=           0 DoJE=T BraDBF=F KetDBF=T FulRan=T
         wScrn=  0.000000 ICntrl=       500 IOpCl=  0 I1Cent=   200000004 NGrid=           0
         NMat0=    1 NMatS0=      1 NMatT0=    0 NMatD0=    1 NMtDS0=    0 NMtDT0=    0
 Symmetry not used in FoFCou.
 Keep R1 ints in memory in canonical form, NReq=47237219.
 Requested convergence on RMS density matrix=1.00D-08 within 128 cycles.
 Requested convergence on MAX density matrix=1.00D-06.
 Requested convergence on             energy=1.00D-06.
 No special actions if energy rises.
 SCF Done:  E(RB3LYP) =  -343.405144635     A.U. after    3 cycles
            NFock=  3  Conv=0.72D-08     -V/T= 2.0093
 DoSCS=F DFT=T ScalE2(SS,OS)=  1.000000  1.000000
 Range of M.O.s used for correlation:     1   126
 NBasis=   126 NAE=    24 NBE=    24 NFC=     0 NFV=     0
 NROrb=    126 NOA=    24 NOB=    24 NVA=   102 NVB=   102

 **** Warning!!: The largest alpha MO coefficient is  0.38481935D+02

 Symmetrizing basis deriv contribution to polar:
 IMax=3 JMax=2 DiffMx= 0.00D+00
 Calling FoFJK, ICntrl=      2127 FMM=F ISym2X=0 I1Cent= 0 IOpClX= 0 NMat=1 NMatS=1 NMatT=0.
 -------------------------------------------------------------------
 Center     Atomic                   Forces (Hartrees/Bohr)
 Number     Number              X              Y              Z
 -------------------------------------------------------------------
      1        6          -0.000018211   -0.000029719    0.000010802
      2        6          -0.000063165   -0.000066798   -0.000014095
      3        6          -0.000028277   -0.000040392   -0.000015156
      4        8           0.000022602   -0.000004412    0.000067832
      5        8           0.000000272    0.000078452   -0.000117638
      6        8           0.000116188    0.000065482    0.000095680
      7        1          -0.000008463    0.000006446   -0.000003440
      8        1           0.000002702    0.000000205    0.000002129
      9        1          -0.000001963   -0.000002825    0.000001086
     10        1          -0.000009418   -0.000008512   -0.000009054
     11        1          -0.000009364   -0.000008458   -0.000002890
     12        1          -0.000002905    0.000010533   -0.000015258
 -------------------------------------------------------------------
 Cartesian Forces:  Max     0.000117638 RMS     0.000042695
 IRC-IRC-IRC-IRC-IRC-IRC-IRC-IRC-IRC-IRC-IRC-IRC-IRC-IRC-IRC-IRC-IRC-IRC
 Error in corrector energy =          -0.0000000000
 Magnitude of corrector gradient =     0.0002561395
 Magnitude of analytic gradient =      0.0002561699
 Magnitude of difference =             0.0000001862
 Angle between gradients (degrees)=    0.0411
 Pt  2 Step number  99 out of a maximum of 100
 Modified Bulirsch-Stoer Extrapolation Cycles:
    EPS =    0.000010000000000
      PEZero:  N= 2 I= 1 D=  7.89D-04 Err=  2.72D-03
      PEZero:  N= 3 I= 2 D=  7.89D-04 Err=  3.86D-03
      PEZero:  N= 3 I= 1 D=  1.58D-03 Err=  3.07D-03
      PEZero:  N= 4 I= 3 D=  3.95D-04 Err=  6.30D-03
      PEZero:  N= 4 I= 2 D=  1.18D-03 Err=  4.55D-03
      PEZero:  N= 4 I= 1 D=  1.97D-03 Err=  3.62D-03
      PEZero:  N= 5 I= 4 D=  3.95D-04 Err=  8.92D-03
      PEZero:  N= 5 I= 3 D=  7.89D-04 Err=  7.08D-03
      PEZero:  N= 5 I= 2 D=  1.58D-03 Err=  4.81D-03
      PEZero:  N= 5 I= 1 D=  2.37D-03 Err=  3.61D-03
      PEZero:  N= 6 I= 5 D=  1.97D-04 Err=  1.40D-02
      PEZero:  N= 6 I= 4 D=  5.92D-04 Err=  9.78D-03
      PEZero:  N= 6 I= 3 D=  9.86D-04 Err=  7.49D-03
      PEZero:  N= 6 I= 2 D=  1.78D-03 Err=  5.06D-03
      PEZero:  N= 6 I= 1 D=  2.56D-03 Err=  3.84D-03
      PEZero:  N= 7 I= 6 D=  1.97D-04 Err=  1.99D-02
      PEZero:  N= 7 I= 5 D=  3.95D-04 Err=  1.60D-02
      PEZero:  N= 7 I= 4 D=  7.89D-04 Err=  1.11D-02
      PEZero:  N= 7 I= 3 D=  1.18D-03 Err=  8.57D-03
      PEZero:  N= 7 I= 2 D=  1.97D-03 Err=  5.85D-03
      PEZero:  N= 7 I= 1 D=  2.76D-03 Err=  4.46D-03
      PEZero:  N= 8 I= 7 D=  9.86D-05 Err=  3.31D-02
      PEZero:  N= 8 I= 6 D=  2.96D-04 Err=  2.42D-02
      PEZero:  N= 8 I= 5 D=  4.93D-04 Err=  1.95D-02
      PEZero:  N= 8 I= 4 D=  8.88D-04 Err=  1.36D-02
      PEZero:  N= 8 I= 3 D=  1.28D-03 Err=  1.06D-02
      PEZero:  N= 8 I= 2 D=  2.07D-03 Err=  7.23D-03
      PEZero:  N= 8 I= 1 D=  2.86D-03 Err=  5.52D-03
      PEZero:  N= 9 I= 8 D=  9.86D-05 Err=  3.97D-02
      PEZero:  N= 9 I= 7 D=  1.97D-04 Err=  2.65D-02
      PEZero:  N= 9 I= 6 D=  3.95D-04 Err=  1.44D-02
      PEZero:  N= 9 I= 5 D=  5.92D-04 Err=  7.93D-03
      PEZero:  N= 9 I= 4 D=  9.86D-04 Err=  3.62D-03
      PEZero:  N= 9 I= 3 D=  1.38D-03 Err=  1.59D-03
      PEZero:  N= 9 I= 2 D=  2.17D-03 Err=  6.22D-04
      PEZero:  N= 9 I= 1 D=  2.96D-03 Err=  3.10D-04
      PEZero:  N=10 I= 9 D=  4.93D-05 Err=  9.66D-03
      PEZero:  N=10 I= 8 D=  1.48D-04 Err=  2.69D-02
      PEZero:  N=11 I=10 D=  4.93D-05 Err=  5.08D-05
      PEZero:  N=11 I= 9 D=  9.86D-05 Err=  9.58D-03
 Maximum DWI energy   std dev =  0.000000268 at pt     2
 Maximum DWI gradient std dev =  1.217378913 at pt     3
 WARNING: Bulirsch-Stoer Method is not Converging
 CORRECTOR INTEGRATION CONVERGENCE:
   Recorrection delta-x convergence threshold:    0.010000
   Delta-x Convergence NOT Met
 IRC-IRC-IRC-IRC-IRC-IRC-IRC-IRC-IRC-IRC-IRC-IRC-IRC-IRC-IRC-IRC-IRC-IRC
                          Input orientation:                          
 ---------------------------------------------------------------------
 Center     Atomic      Atomic             Coordinates (Angstroms)
 Number     Number       Type             X           Y           Z
 ---------------------------------------------------------------------
      1          6           0        0.075558    1.386610    0.380788
      2          6           0        0.908159    0.901330   -0.569489
      3          6           0        1.863519   -0.198151   -0.309887
      4          8           0       -2.326674    0.230937    0.256116
      5          8           0       -1.616465   -0.973368   -0.329068
      6          8           0        1.781827   -0.989635    0.617143
      7          1           0       -2.051428   -1.081267   -1.195824
      8          1           0        0.059063    0.964841    1.381237
      9          1           0       -0.570368    2.235868    0.193511
     10          1           0        2.699396   -0.279971   -1.036152
     11          1           0        0.970963    1.378853   -1.547063
     12          1           0       -0.706525   -0.611753   -0.494903
 ---------------------------------------------------------------------
                    Distance matrix (angstroms):
                    1          2          3          4          5
     1  C    0.000000
     2  C    1.353420   0.000000
     3  C    2.487027   1.479514   0.000000
     4  O    2.668678   3.405172   4.249964   0.000000
     5  O    2.989370   3.153731   3.565335   1.515647   0.000000
     6  O    2.934920   2.397319   1.221682   4.301153   3.527601
     7  H    3.619419   3.616924   4.109937   1.976303   0.975757
     8  H    1.085844   2.128456   2.732857   2.737928   3.080453
     9  H    1.083297   2.132886   3.478744   2.666135   3.415640
    10  H    3.416099   2.195854   1.110336   5.214630   4.428027
    11  H    2.125657   1.089782   2.194128   3.929832   3.702869
    12  H    2.317745   2.214088   2.609678   1.974599   0.993105
                    6          7          8          9         10
     6  O    0.000000
     7  H    4.241355   0.000000
     8  H    2.715093   3.909216   0.000000
     9  H    4.014493   3.889366   1.849969   0.000000
    10  H    2.019639   4.820570   3.790077   4.304982   0.000000
    11  H    3.309233   3.912852   3.094819   2.477857   2.449532
    12  H    2.751606   1.587608   2.567425   2.932813   3.464582
                   11         12
    11  H    0.000000
    12  H    2.807761   0.000000
 Symmetry turned off by external request.
 Stoichiometry    C3H6O3
 Framework group  C1[X(C3H6O3)]
 Deg. of freedom    30
 Full point group                 C1      NOp   1
 Rotational constants (GHZ):           5.1984596           1.8928493           1.5856800
 Standard basis: 6-31+G(d) (6D, 7F)
   126 basis functions,   216 primitive gaussians,   126 cartesian basis functions
    24 alpha electrons       24 beta electrons
       nuclear repulsion energy       223.5256217427 Hartrees.
 NAtoms=   12 NActive=   12 NUniq=   12 SFac= 1.00D+00 NAtFMM=   60 NAOKFM=F Big=F
 Integral buffers will be    131072 words long.
 Raffenetti 2 integral format.
 Two-electron integral symmetry is turned off.
 One-electron integrals computed using PRISM.
 NBasis=   126 RedAO= T EigKep=  8.21D-05  NBF=   126
 NBsUse=   126 1.00D-06 EigRej= -1.00D+00 NBFU=   126
 Initial guess from the checkpoint file:  "/scratch/bell/zhao922/YARP/paper-example/KHP-network/pp_0/IRC-folder/Gau-71580.chk"
 B after Tr=    -0.000000   -0.000000   -0.000000
         Rot=    1.000000   -0.000000    0.000000    0.000000 Ang=  -0.00 deg.
 ExpMin= 4.38D-02 ExpMax= 5.48D+03 ExpMxC= 8.25D+02 IAcc=3 IRadAn=         5 AccDes= 0.00D+00
 Harris functional with IExCor=  402 and IRadAn=       5 diagonalized for initial guess.
 HarFok:  IExCor=  402 AccDes= 0.00D+00 IRadAn=         5 IDoV= 1 UseB2=F ITyADJ=14
 ICtDFT=  3500011 ScaDFX=  1.000000  1.000000  1.000000  1.000000
 FoFCou: FMM=F IPFlag=           0 FMFlag=      100000 FMFlg1=           0
         NFxFlg=           0 DoJE=T BraDBF=F KetDBF=T FulRan=T
         wScrn=  0.000000 ICntrl=       500 IOpCl=  0 I1Cent=   200000004 NGrid=           0
         NMat0=    1 NMatS0=      1 NMatT0=    0 NMatD0=    1 NMtDS0=    0 NMtDT0=    0
 Symmetry not used in FoFCou.
 Keep R1 ints in memory in canonical form, NReq=47237219.
 Requested convergence on RMS density matrix=1.00D-08 within 128 cycles.
 Requested convergence on MAX density matrix=1.00D-06.
 Requested convergence on             energy=1.00D-06.
 No special actions if energy rises.
 SCF Done:  E(RB3LYP) =  -343.405144635     A.U. after    2 cycles
            NFock=  2  Conv=0.47D-08     -V/T= 2.0093
 DoSCS=F DFT=T ScalE2(SS,OS)=  1.000000  1.000000
 Range of M.O.s used for correlation:     1   126
 NBasis=   126 NAE=    24 NBE=    24 NFC=     0 NFV=     0
 NROrb=    126 NOA=    24 NOB=    24 NVA=   102 NVB=   102

 **** Warning!!: The largest alpha MO coefficient is  0.38481941D+02

 Symmetrizing basis deriv contribution to polar:
 IMax=3 JMax=2 DiffMx= 0.00D+00
 Calling FoFJK, ICntrl=      2127 FMM=F ISym2X=0 I1Cent= 0 IOpClX= 0 NMat=1 NMatS=1 NMatT=0.
 -------------------------------------------------------------------
 Center     Atomic                   Forces (Hartrees/Bohr)
 Number     Number              X              Y              Z
 -------------------------------------------------------------------
      1        6          -0.000018160   -0.000029731    0.000010812
      2        6          -0.000063169   -0.000066781   -0.000014097
      3        6          -0.000028268   -0.000040458   -0.000015082
      4        8           0.000022605   -0.000004507    0.000067764
      5        8           0.000000266    0.000078479   -0.000117510
      6        8           0.000116176    0.000065523    0.000095635
      7        1          -0.000008519    0.000006467   -0.000003481
      8        1           0.000002694    0.000000205    0.000002122
      9        1          -0.000001982   -0.000002812    0.000001080
     10        1          -0.000009416   -0.000008506   -0.000009079
     11        1          -0.000009370   -0.000008454   -0.000002890
     12        1          -0.000002859    0.000010576   -0.000015272
 -------------------------------------------------------------------
 Cartesian Forces:  Max     0.000117510 RMS     0.000042683
 IRC-IRC-IRC-IRC-IRC-IRC-IRC-IRC-IRC-IRC-IRC-IRC-IRC-IRC-IRC-IRC-IRC-IRC
 Error in corrector energy =           0.0000000000
 Magnitude of corrector gradient =     0.0002561268
 Magnitude of analytic gradient =      0.0002560969
 Magnitude of difference =             0.0000001077
 Angle between gradients (degrees)=    0.0231
 Pt  2 Step number 100 out of a maximum of 100
 Modified Bulirsch-Stoer Extrapolation Cycles:
    EPS =    0.000010000000000
      PEZero:  N= 2 I= 1 D=  7.89D-04 Err=  2.72D-03
      PEZero:  N= 3 I= 2 D=  7.89D-04 Err=  3.86D-03
      PEZero:  N= 3 I= 1 D=  1.58D-03 Err=  3.07D-03
      PEZero:  N= 4 I= 3 D=  3.95D-04 Err=  6.30D-03
      PEZero:  N= 4 I= 2 D=  1.18D-03 Err=  4.55D-03
      PEZero:  N= 4 I= 1 D=  1.97D-03 Err=  3.62D-03
      PEZero:  N= 5 I= 4 D=  3.95D-04 Err=  8.92D-03
      PEZero:  N= 5 I= 3 D=  7.89D-04 Err=  7.08D-03
      PEZero:  N= 5 I= 2 D=  1.58D-03 Err=  4.81D-03
      PEZero:  N= 5 I= 1 D=  2.37D-03 Err=  3.61D-03
      PEZero:  N= 6 I= 5 D=  1.97D-04 Err=  1.40D-02
      PEZero:  N= 6 I= 4 D=  5.92D-04 Err=  9.78D-03
      PEZero:  N= 6 I= 3 D=  9.86D-04 Err=  7.49D-03
      PEZero:  N= 6 I= 2 D=  1.78D-03 Err=  5.06D-03
      PEZero:  N= 6 I= 1 D=  2.56D-03 Err=  3.84D-03
      PEZero:  N= 7 I= 6 D=  1.97D-04 Err=  1.99D-02
      PEZero:  N= 7 I= 5 D=  3.95D-04 Err=  1.60D-02
      PEZero:  N= 7 I= 4 D=  7.89D-04 Err=  1.11D-02
      PEZero:  N= 7 I= 3 D=  1.18D-03 Err=  8.57D-03
      PEZero:  N= 7 I= 2 D=  1.97D-03 Err=  5.85D-03
      PEZero:  N= 7 I= 1 D=  2.76D-03 Err=  4.46D-03
      PEZero:  N= 8 I= 7 D=  9.86D-05 Err=  3.31D-02
      PEZero:  N= 8 I= 6 D=  2.96D-04 Err=  2.42D-02
      PEZero:  N= 8 I= 5 D=  4.93D-04 Err=  1.95D-02
      PEZero:  N= 8 I= 4 D=  8.88D-04 Err=  1.36D-02
      PEZero:  N= 8 I= 3 D=  1.28D-03 Err=  1.06D-02
      PEZero:  N= 8 I= 2 D=  2.07D-03 Err=  7.23D-03
      PEZero:  N= 8 I= 1 D=  2.86D-03 Err=  5.52D-03
      PEZero:  N= 9 I= 8 D=  9.86D-05 Err=  3.97D-02
      PEZero:  N= 9 I= 7 D=  1.97D-04 Err=  2.65D-02
      PEZero:  N= 9 I= 6 D=  3.95D-04 Err=  1.44D-02
      PEZero:  N= 9 I= 5 D=  5.92D-04 Err=  7.93D-03
      PEZero:  N= 9 I= 4 D=  9.86D-04 Err=  3.62D-03
      PEZero:  N= 9 I= 3 D=  1.38D-03 Err=  1.59D-03
      PEZero:  N= 9 I= 2 D=  2.17D-03 Err=  6.21D-04
      PEZero:  N= 9 I= 1 D=  2.96D-03 Err=  3.10D-04
      PEZero:  N=10 I= 9 D=  4.93D-05 Err=  9.66D-03
      PEZero:  N=10 I= 8 D=  1.48D-04 Err=  2.69D-02
      PEZero:  N=11 I=10 D=  4.93D-05 Err=  5.08D-05
      PEZero:  N=11 I= 9 D=  9.86D-05 Err=  9.58D-03
 Maximum DWI energy   std dev =  0.000000268 at pt     2
 Maximum DWI gradient std dev =  1.217341688 at pt     3
 WARNING: Bulirsch-Stoer Method is not Converging
 CORRECTOR INTEGRATION CONVERGENCE:
   Recorrection delta-x convergence threshold:    0.010000
   Delta-x Convergence NOT Met
 Maximum number of corrector steps exceded.
 Error termination via Lnk1e in /apps/cent7/gaussian/g16-B.01/g16-haswell/g16/l123.exe at Wed Dec 23 22:22:36 2020.
 Job cpu time:       0 days  1 hours 14 minutes  5.3 seconds.
 Elapsed time:       0 days  0 hours  5 minutes 48.1 seconds.
 File lengths (MBytes):  RWF=     28 Int=      0 D2E=      0 Chk=      4 Scr=      1
