 Entering Gaussian System, Link 0=g16
 Initial command:
 /apps/cent7/gaussian/g16-B.01/g16-haswell/g16/l1.exe "/scratch/bell/zhao922/YARP/paper-example/KHP-network/pp_0/IRC-folder/Gau-70345.inp" -scrdir="/scratch/bell/zhao922/YARP/paper-example/KHP-network/pp_0/IRC-folder/"
 Entering Link 1 = /apps/cent7/gaussian/g16-B.01/g16-haswell/g16/l1.exe PID=     70347.
  
 Copyright (c) 1988-2017, Gaussian, Inc.  All Rights Reserved.
  
 This is part of the Gaussian(R) 16 program.  It is based on
 the Gaussian(R) 09 system (copyright 2009, Gaussian, Inc.),
 the Gaussian(R) 03 system (copyright 2003, Gaussian, Inc.),
 the Gaussian(R) 98 system (copyright 1998, Gaussian, Inc.),
 the Gaussian(R) 94 system (copyright 1995, Gaussian, Inc.),
 the Gaussian 92(TM) system (copyright 1992, Gaussian, Inc.),
 the Gaussian 90(TM) system (copyright 1990, Gaussian, Inc.),
 the Gaussian 88(TM) system (copyright 1988, Gaussian, Inc.),
 the Gaussian 86(TM) system (copyright 1986, Carnegie Mellon
 University), and the Gaussian 82(TM) system (copyright 1983,
 Carnegie Mellon University). Gaussian is a federally registered
 trademark of Gaussian, Inc.
  
 This software contains proprietary and confidential information,
 including trade secrets, belonging to Gaussian, Inc.
  
 This software is provided under written license and may be
 used, copied, transmitted, or stored only in accord with that
 written license.
  
 The following legend is applicable only to US Government
 contracts under FAR:
  
                    RESTRICTED RIGHTS LEGEND
  
 Use, reproduction and disclosure by the US Government is
 subject to restrictions as set forth in subparagraphs (a)
 and (c) of the Commercial Computer Software - Restricted
 Rights clause in FAR 52.227-19.
  
 Gaussian, Inc.
 340 Quinnipiac St., Bldg. 40, Wallingford CT 06492
  
  
 ---------------------------------------------------------------
 Warning -- This program may not be used in any manner that
 competes with the business of Gaussian, Inc. or will provide
 assistance to any competitor of Gaussian, Inc.  The licensee
 of this program is prohibited from giving any competitor of
 Gaussian, Inc. access to this program.  By using this program,
 the user acknowledges that Gaussian, Inc. is engaged in the
 business of creating and licensing software in the field of
 computational chemistry and represents and warrants to the
 licensee that it is not a competitor of Gaussian, Inc. and that
 it will not use this program in any manner prohibited above.
 ---------------------------------------------------------------
  

 Cite this work as:
 Gaussian 16, Revision B.01,
 M. J. Frisch, G. W. Trucks, H. B. Schlegel, G. E. Scuseria, 
 M. A. Robb, J. R. Cheeseman, G. Scalmani, V. Barone, 
 G. A. Petersson, H. Nakatsuji, X. Li, M. Caricato, A. V. Marenich, 
 J. Bloino, B. G. Janesko, R. Gomperts, B. Mennucci, H. P. Hratchian, 
 J. V. Ortiz, A. F. Izmaylov, J. L. Sonnenberg, D. Williams-Young, 
 F. Ding, F. Lipparini, F. Egidi, J. Goings, B. Peng, A. Petrone, 
 T. Henderson, D. Ranasinghe, V. G. Zakrzewski, J. Gao, N. Rega, 
 G. Zheng, W. Liang, M. Hada, M. Ehara, K. Toyota, R. Fukuda, 
 J. Hasegawa, M. Ishida, T. Nakajima, Y. Honda, O. Kitao, H. Nakai, 
 T. Vreven, K. Throssell, J. A. Montgomery, Jr., J. E. Peralta, 
 F. Ogliaro, M. J. Bearpark, J. J. Heyd, E. N. Brothers, K. N. Kudin, 
 V. N. Staroverov, T. A. Keith, R. Kobayashi, J. Normand, 
 K. Raghavachari, A. P. Rendell, J. C. Burant, S. S. Iyengar, 
 J. Tomasi, M. Cossi, J. M. Millam, M. Klene, C. Adamo, R. Cammi, 
 J. W. Ochterski, R. L. Martin, K. Morokuma, O. Farkas, 
 J. B. Foresman, and D. J. Fox, Gaussian, Inc., Wallingford CT, 2016.
 
 ******************************************
 Gaussian 16:  ES64L-G16RevB.01 20-Dec-2017
                23-Dec-2020 
 ******************************************
 %NProcShared=16
 Will use up to   16 processors via shared memory.
 %Mem=6GB
 ----------------------------------------------------------------------
 # B3LYP/6-31+G* IRC=(CALCALL, maxpoints=40, StepSize=15, maxcyc=100, R
 eport=Cartesians)
 ----------------------------------------------------------------------
 1/6=100,10=4,18=10,26=3,38=1,39=15,42=40,44=3,71=1,129=10,172=1/1,23;
 2/12=2,17=6,18=5,29=1,40=1/2;
 3/5=1,6=6,7=11,11=2,25=1,30=1,71=2,74=-5,140=1/1,2,3;
 4//1;
 5/5=2,38=5/2;
 8/6=4,10=90,11=11/1;
 11/6=1,8=1,9=11,15=111,16=1/1,2,10;
 10/6=1,13=1/2;
 6/7=2,8=2,9=2,10=2,18=1,28=1/1;
 7/10=1,25=1/1,2,3,16;
 1/6=100,10=4,18=10,26=3,39=15,42=40,44=3,71=1,129=10/23(2);
 2/29=1/2;
 99/5=20/99;
 2/29=1/2;
 3/5=1,6=6,7=11,11=2,25=1,30=1,71=2,74=-5,140=1/1,2,3;
 4/5=5,16=3,69=1/1;
 5/5=2,38=5/2;
 8/6=4,10=90,11=11/1;
 11/6=1,8=1,9=11,15=111,16=1/1,2,10;
 10/6=1,13=1/2;
 7/10=1,25=1/1,2,3,16;
 1/6=100,10=4,18=10,26=3,39=15,42=40,44=3,71=1,129=10/23(-8);
 2/29=1/2;
 6/7=2,8=2,9=2,10=2,18=1,19=2,28=1/1;
 99/5=20/99;
 -----------
 pp_14_0 IRC
 -----------
 Symbolic Z-matrix:
 Charge =  0 Multiplicity = 1
 C                     0.45082   0.45517  -0.52591 
 C                    -0.70243   0.8981    0.37717 
 C                    -1.93065   0.02768   0.25782 
 O                     1.65594   0.84041  -0.19333 
 O                     2.01249  -1.01048   0.31435 
 O                    -1.96183  -1.02998  -0.33659 
 H                     2.74117  -1.60386   0.62103 
 H                     0.63788  -0.74803  -0.30391 
 H                     0.25334   0.43459  -1.61231 
 H                    -2.83955   0.4085    0.771 
 H                    -0.98073   1.94244   0.16806 
 H                    -0.37134   0.88108   1.42625 
 
 IRC-IRC-IRC-IRC-IRC-IRC-IRC-IRC-IRC-IRC-IRC-IRC-IRC-IRC-IRC-IRC-IRC-IRC
 ------------------------------------------------------------------------
 INPUT DATA FOR L123
 ------------------------------------------------------------------------
 GENERAL PARAMETERS:
 Follow reaction path in both directions.
 Maximum points per path      =  40
 Step size                    =   0.150 bohr
 Integration scheme           = HPC                                 
    Redo corrector integration= Yes                                 
    DWI Weight Power          =  2
    DWI will use Hessian update vectors when possible.
    Max correction cycles     = 100
 Initial Hessian              = CalcFC
 Hessian evaluation           = Analytic at all predictor steps
                              = Update at all corrector steps
 Hessian updating method      = Bofill                              
 ------------------------------------------------------------------------
 IRC-IRC-IRC-IRC-IRC-IRC-IRC-IRC-IRC-IRC-IRC-IRC-IRC-IRC-IRC-IRC-IRC-IRC
                          Input orientation:                          
 ---------------------------------------------------------------------
 Center     Atomic      Atomic             Coordinates (Angstroms)
 Number     Number       Type             X           Y           Z
 ---------------------------------------------------------------------
      1          6           0        0.450822    0.455170   -0.525912
      2          6           0       -0.702427    0.898096    0.377167
      3          6           0       -1.930653    0.027675    0.257817
      4          8           0        1.655942    0.840414   -0.193333
      5          8           0        2.012487   -1.010476    0.314349
      6          8           0       -1.961832   -1.029985   -0.336585
      7          1           0        2.741172   -1.603858    0.621029
      8          1           0        0.637876   -0.748033   -0.303908
      9          1           0        0.253340    0.434592   -1.612305
     10          1           0       -2.839548    0.408499    0.770996
     11          1           0       -0.980732    1.942443    0.168061
     12          1           0       -0.371339    0.881076    1.426247
 ---------------------------------------------------------------------
                    Distance matrix (angstroms):
                    1          2          3          4          5
     1  C    0.000000
     2  C    1.530267   0.000000
     3  C    2.543306   1.510105   0.000000
     4  O    1.308180   2.427077   3.705097   0.000000
     5  O    2.300642   3.319240   4.077905   1.952091   0.000000
     6  O    2.839442   2.411025   1.213643   4.075194   4.027320
     7  H    3.286453   4.263522   4.961831   2.795599   0.988502
     8  H    1.237729   2.229353   2.741277   1.889934   1.529926
     9  H    1.104388   2.255288   2.903922   2.036042   2.982418
    10  H    3.537044   2.227576   1.111067   4.617999   5.075851
    11  H    2.177826   1.100836   2.139332   2.880473   4.207195
    12  H    2.160618   1.100217   2.127201   2.595103   3.239894
                    6          7          8          9         10
     6  O    0.000000
     7  H    4.833694   0.000000
     8  H    2.615157   2.451897   0.000000
     9  H    2.946088   3.915657   1.805096   0.000000
    10  H    2.016521   5.934350   3.819092   3.904710   0.000000
    11  H    3.170576   5.160814   3.175108   2.639366   2.484293
    12  H    3.047852   4.063373   2.581850   3.134066   2.597063
                   11         12
    11  H    0.000000
    12  H    1.755247   0.000000
 Symmetry turned off by external request.
 Stoichiometry    C3H6O3
 Framework group  C1[X(C3H6O3)]
 Deg. of freedom    30
 Full point group                 C1      NOp   1
 Rotational constants (GHZ):           6.3134213           1.9701561           1.6545829
 Standard basis: 6-31+G(d) (6D, 7F)
   126 basis functions,   216 primitive gaussians,   126 cartesian basis functions
    24 alpha electrons       24 beta electrons
       nuclear repulsion energy       231.3448632553 Hartrees.
 NAtoms=   12 NActive=   12 NUniq=   12 SFac= 1.00D+00 NAtFMM=   60 NAOKFM=F Big=F
 Integral buffers will be    131072 words long.
 Raffenetti 2 integral format.
 Two-electron integral symmetry is turned off.
 One-electron integrals computed using PRISM.
 NBasis=   126 RedAO= T EigKep=  9.23D-05  NBF=   126
 NBsUse=   126 1.00D-06 EigRej= -1.00D+00 NBFU=   126
 ExpMin= 4.38D-02 ExpMax= 5.48D+03 ExpMxC= 8.25D+02 IAcc=3 IRadAn=         5 AccDes= 0.00D+00
 Harris functional with IExCor=  402 and IRadAn=       5 diagonalized for initial guess.
 HarFok:  IExCor=  402 AccDes= 0.00D+00 IRadAn=         5 IDoV= 1 UseB2=F ITyADJ=14
 ICtDFT=  3500011 ScaDFX=  1.000000  1.000000  1.000000  1.000000
 FoFCou: FMM=F IPFlag=           0 FMFlag=      100000 FMFlg1=           0
         NFxFlg=           0 DoJE=T BraDBF=F KetDBF=T FulRan=T
         wScrn=  0.000000 ICntrl=       500 IOpCl=  0 I1Cent=   200000004 NGrid=           0
         NMat0=    1 NMatS0=      1 NMatT0=    0 NMatD0=    1 NMtDS0=    0 NMtDT0=    0
 Symmetry not used in FoFCou.
 Keep R1 ints in memory in canonical form, NReq=47237243.
 Requested convergence on RMS density matrix=1.00D-08 within 128 cycles.
 Requested convergence on MAX density matrix=1.00D-06.
 Requested convergence on             energy=1.00D-06.
 No special actions if energy rises.
 EnCoef did     2 forward-backward iterations
 SCF Done:  E(RB3LYP) =  -343.416560407     A.U. after   15 cycles
            NFock= 15  Conv=0.36D-08     -V/T= 2.0093
 DoSCS=F DFT=T ScalE2(SS,OS)=  1.000000  1.000000
 Range of M.O.s used for correlation:     1   126
 NBasis=   126 NAE=    24 NBE=    24 NFC=     0 NFV=     0
 NROrb=    126 NOA=    24 NOB=    24 NVA=   102 NVB=   102

 **** Warning!!: The largest alpha MO coefficient is  0.37922513D+02

 Symmetrizing basis deriv contribution to polar:
 IMax=3 JMax=2 DiffMx= 0.00D+00
 G2DrvN: will do    13 centers at a time, making    1 passes.
 Calling FoFCou, ICntrl=  3107 FMM=F I1Cent=   0 AccDes= 0.00D+00.
 End of G2Drv F.D. properties file   721 does not exist.
 End of G2Drv F.D. properties file   722 does not exist.
 End of G2Drv F.D. properties file   788 does not exist.
          IDoAtm=111111111111
          Differentiating once with respect to nuclear coordinates.
 Keep R1 ints in memory in canonical form, NReq=47193265.
          There are    39 degrees of freedom in the 1st order CPHF.  IDoFFX=6 NUNeed=     0.
     33 vectors produced by pass  0 Test12= 6.28D-15 2.56D-09 XBig12= 2.88D-01 3.71D-01.
 AX will form    33 AO Fock derivatives at one time.
     33 vectors produced by pass  1 Test12= 6.28D-15 2.56D-09 XBig12= 2.50D-01 2.04D-01.
     33 vectors produced by pass  2 Test12= 6.28D-15 2.56D-09 XBig12= 2.70D-03 1.09D-02.
     33 vectors produced by pass  3 Test12= 6.28D-15 2.56D-09 XBig12= 1.45D-05 4.98D-04.
     33 vectors produced by pass  4 Test12= 6.28D-15 2.56D-09 XBig12= 1.80D-08 1.98D-05.
     28 vectors produced by pass  5 Test12= 6.28D-15 2.56D-09 XBig12= 1.72D-11 6.13D-07.
      3 vectors produced by pass  6 Test12= 6.28D-15 2.56D-09 XBig12= 1.49D-14 1.90D-08.
 InvSVY:  IOpt=1 It=  1 EMax= 2.66D-15
 Solved reduced A of dimension   196 with    33 vectors.
 End of Minotr F.D. properties file   721 does not exist.
 End of Minotr F.D. properties file   722 does not exist.
 End of Minotr F.D. properties file   788 does not exist.

 **********************************************************************

            Population analysis using the SCF Density.

 **********************************************************************

 Alpha  occ. eigenvalues --  -19.22563 -19.18691 -19.18402 -10.30727 -10.26840
 Alpha  occ. eigenvalues --  -10.22836  -1.07730  -1.06338  -0.95980  -0.79679
 Alpha  occ. eigenvalues --   -0.65971  -0.59147  -0.54587  -0.50914  -0.49126
 Alpha  occ. eigenvalues --   -0.46516  -0.44303  -0.43890  -0.39181  -0.35961
 Alpha  occ. eigenvalues --   -0.33572  -0.32274  -0.29485  -0.27731
 Alpha virt. eigenvalues --   -0.16243  -0.05423   0.00239   0.01567   0.02860
 Alpha virt. eigenvalues --    0.03298   0.05333   0.06452   0.06940   0.07892
 Alpha virt. eigenvalues --    0.08977   0.11231   0.11578   0.12742   0.15357
 Alpha virt. eigenvalues --    0.16062   0.18162   0.18402   0.20882   0.21771
 Alpha virt. eigenvalues --    0.22225   0.23537   0.24254   0.25795   0.26486
 Alpha virt. eigenvalues --    0.26778   0.28510   0.29276   0.30586   0.31213
 Alpha virt. eigenvalues --    0.33388   0.35108   0.37155   0.38606   0.40371
 Alpha virt. eigenvalues --    0.44913   0.62806   0.64234   0.65169   0.68630
 Alpha virt. eigenvalues --    0.69650   0.71601   0.77199   0.78585   0.84037
 Alpha virt. eigenvalues --    0.91005   0.93218   0.98286   1.03724   1.04915
 Alpha virt. eigenvalues --    1.06525   1.08163   1.14112   1.16162   1.17954
 Alpha virt. eigenvalues --    1.20319   1.22125   1.24808   1.25823   1.29886
 Alpha virt. eigenvalues --    1.32201   1.33358   1.39905   1.45768   1.50576
 Alpha virt. eigenvalues --    1.55165   1.56632   1.62453   1.65976   1.67237
 Alpha virt. eigenvalues --    1.70087   1.72235   1.75720   1.76620   1.79966
 Alpha virt. eigenvalues --    1.83087   1.83466   1.88738   1.98531   1.99139
 Alpha virt. eigenvalues --    2.04094   2.05315   2.21093   2.23469   2.28583
 Alpha virt. eigenvalues --    2.31567   2.38904   2.46378   2.47701   2.55350
 Alpha virt. eigenvalues --    2.57293   2.66993   2.75995   2.91065   2.97746
 Alpha virt. eigenvalues --    3.05164   4.10727   4.12239   4.16553   4.25395
 Alpha virt. eigenvalues --    4.35211   4.53033
          Condensed to atoms (all electrons):
               1          2          3          4          5          6
     1  C    5.633951  -0.283962   0.029157   0.354429  -0.186395   0.082629
     2  C   -0.283962   6.858355  -0.229034  -0.181817   0.057214  -0.219175
     3  C    0.029157  -0.229034   5.123211   0.040702   0.008210   0.486758
     4  O    0.354429  -0.181817   0.040702   8.057866  -0.086252   0.001155
     5  O   -0.186395   0.057214   0.008210  -0.086252   8.741515  -0.003802
     6  O    0.082629  -0.219175   0.486758   0.001155  -0.003802   8.057842
     7  H    0.026807  -0.007782  -0.000869   0.016974   0.134572  -0.000018
     8  H    0.331462  -0.073908  -0.003931  -0.003737  -0.017865   0.007888
     9  H    0.380781  -0.090477   0.024230  -0.057361   0.010809  -0.004947
    10  H    0.036387  -0.169585   0.404588  -0.000341  -0.000134  -0.062024
    11  H   -0.003946   0.345040  -0.039935  -0.002779  -0.001814   0.002939
    12  H   -0.042813   0.358902  -0.008602  -0.000569   0.004237  -0.000778
               7          8          9         10         11         12
     1  C    0.026807   0.331462   0.380781   0.036387  -0.003946  -0.042813
     2  C   -0.007782  -0.073908  -0.090477  -0.169585   0.345040   0.358902
     3  C   -0.000869  -0.003931   0.024230   0.404588  -0.039935  -0.008602
     4  O    0.016974  -0.003737  -0.057361  -0.000341  -0.002779  -0.000569
     5  O    0.134572  -0.017865   0.010809  -0.000134  -0.001814   0.004237
     6  O   -0.000018   0.007888  -0.004947  -0.062024   0.002939  -0.000778
     7  H    0.353609   0.005308  -0.000196  -0.000000   0.000009  -0.000068
     8  H    0.005308   0.432674  -0.022198   0.000301   0.002580  -0.002558
     9  H   -0.000196  -0.022198   0.531874  -0.000392  -0.002484   0.002919
    10  H   -0.000000   0.000301  -0.000392   0.620999   0.002792   0.000676
    11  H    0.000009   0.002580  -0.002484   0.002792   0.488871  -0.025822
    12  H   -0.000068  -0.002558   0.002919   0.000676  -0.025822   0.455065
 Mulliken charges:
               1
     1  C   -0.358488
     2  C   -0.363772
     3  C    0.165516
     4  O   -0.138271
     5  O   -0.660294
     6  O   -0.348467
     7  H    0.471655
     8  H    0.343985
     9  H    0.227442
    10  H    0.166733
    11  H    0.234549
    12  H    0.259412
 Sum of Mulliken charges =  -0.00000
 Mulliken charges with hydrogens summed into heavy atoms:
               1
     1  C    0.212938
     2  C    0.130189
     3  C    0.332249
     4  O   -0.138271
     5  O   -0.188639
     6  O   -0.348467
 APT charges:
               1
     1  C   -0.689884
     2  C   -0.621405
     3  C   -0.343981
     4  O   -0.210245
     5  O   -0.931493
     6  O   -0.313080
     7  H    0.810166
     8  H    0.367352
     9  H    0.446356
    10  H    0.552584
    11  H    0.512247
    12  H    0.421381
 Sum of APT charges =  -0.00000
 APT charges with hydrogens summed into heavy atoms:
               1
     1  C    0.123825
     2  C    0.312224
     3  C    0.208604
     4  O   -0.210245
     5  O   -0.121327
     6  O   -0.313080
 Electronic spatial extent (au):  <R**2>=            708.4594
 Charge=             -0.0000 electrons
 Dipole moment (field-independent basis, Debye):
    X=             -1.1320    Y=              1.5177    Z=              0.9976  Tot=              2.1401
 Quadrupole moment (field-independent basis, Debye-Ang):
   XX=            -37.1132   YY=            -36.0680   ZZ=            -34.8729
   XY=             -9.1947   XZ=             -1.0593   YZ=             -1.7407
 Traceless Quadrupole moment (field-independent basis, Debye-Ang):
   XX=             -1.0952   YY=             -0.0500   ZZ=              1.1451
   XY=             -9.1947   XZ=             -1.0593   YZ=             -1.7407
 Octapole moment (field-independent basis, Debye-Ang**2):
  XXX=             15.1049  YYY=             -3.6513  ZZZ=             -1.1875  XYY=             10.9680
  XXY=             -5.6166  XXZ=             11.6806  XZZ=              1.4052  YZZ=             -0.2575
  YYZ=              2.5895  XYZ=             -1.7049
 Hexadecapole moment (field-independent basis, Debye-Ang**3):
 XXXX=           -547.3473 YYYY=           -183.2672 ZZZZ=            -79.0941 XXXY=            -61.9995
 XXXZ=             13.2196 YYYX=            -20.8207 YYYZ=             -7.1329 ZZZX=              2.0938
 ZZZY=             -1.2169 XXYY=           -121.9402 XXZZ=           -112.4413 YYZZ=            -46.5419
 XXYZ=            -14.3236 YYXZ=              6.0845 ZZXY=             -1.1824
 N-N= 2.313448632553D+02 E-N=-1.267347585180D+03  KE= 3.402607902036D+02
  Exact polarizability:   0.000   0.000   0.000   0.000   0.000   0.000
 Approx polarizability:  99.223 -18.134 113.561  13.709  -5.669  65.720
 Calling FoFJK, ICntrl=    100127 FMM=F ISym2X=0 I1Cent= 0 IOpClX= 0 NMat=1 NMatS=1 NMatT=0.
 -------------------------------------------------------------------
 Center     Atomic                   Forces (Hartrees/Bohr)
 Number     Number              X              Y              Z
 -------------------------------------------------------------------
      1        6          -0.000001510   -0.000000458   -0.000000827
      2        6           0.000000152   -0.000000038    0.000000076
      3        6          -0.000000201    0.000000206    0.000000786
      4        8           0.000000814   -0.000000418    0.000000602
      5        8           0.000001544    0.000001475   -0.000000449
      6        8           0.000000264   -0.000001005   -0.000000418
      7        1           0.000000232    0.000000208   -0.000000424
      8        1          -0.000000618    0.000000748   -0.000000453
      9        1          -0.000000167    0.000000446    0.000000317
     10        1           0.000000043   -0.000000700    0.000000284
     11        1          -0.000000390   -0.000000215    0.000000454
     12        1          -0.000000163   -0.000000248    0.000000050
 -------------------------------------------------------------------
 Cartesian Forces:  Max     0.000001544 RMS     0.000000622
 IRC-IRC-IRC-IRC-IRC-IRC-IRC-IRC-IRC-IRC-IRC-IRC-IRC-IRC-IRC-IRC-IRC-IRC
          ******** Start new reaction path calculation ********
 Supplied step size of   0.1500 bohr.
    Integration on MW PES will use step size of   0.1613 sqrt(amu)*bohr.
 Point Number:   0          Path Number:   1
 Calculating another point on the path.
 IRC-IRC-IRC-IRC-IRC-IRC-IRC-IRC-IRC-IRC-IRC-IRC-IRC-IRC-IRC-IRC-IRC-IRC
                          Input orientation:                          
 ---------------------------------------------------------------------
 Center     Atomic      Atomic             Coordinates (Angstroms)
 Number     Number       Type             X           Y           Z
 ---------------------------------------------------------------------
      1          6           0        0.441281    0.464535   -0.514933
      2          6           0       -0.708659    0.913879    0.388769
      3          6           0       -1.936641    0.042128    0.269561
      4          8           0        1.653780    0.851410   -0.179456
      5          8           0        2.007081   -0.994909    0.326143
      6          8           0       -1.967964   -1.015503   -0.324774
      7          1           0        2.759910   -1.556427    0.636812
      8          1           0        0.579661   -0.705396   -0.318158
      9          1           0        0.247217    0.466394   -1.602236
     10          1           0       -2.845447    0.422838    0.783031
     11          1           0       -0.988560    1.957847    0.181670
     12          1           0       -0.377408    0.894802    1.437852
 ---------------------------------------------------------------------
                    Distance matrix (angstroms):
                    1          2          3          4          5
     1  C    0.000000
     2  C    1.530016   0.000000
     3  C    2.539364   1.510661   0.000000
     4  O    1.316195   2.430617   3.707785   0.000000
     5  O    2.299807   3.320035   4.078184   1.946624   0.000000
     6  O    2.833926   2.411951   1.213590   4.077194   4.028039
     7  H    3.284333   4.265549   4.974720   2.772633   0.989227
     8  H    1.194407   2.186679   2.689977   1.896474   1.592630
     9  H    1.104487   2.253452   2.907381   2.037390   2.991851
    10  H    3.533982   2.227650   1.111089   4.620941   5.076000
    11  H    2.181669   1.100502   2.139289   2.887312   4.208741
    12  H    2.160730   1.100303   2.126773   2.596785   3.239242
                    6          7          8          9         10
     6  O    0.000000
     7  H    4.854898   0.000000
     8  H    2.566437   2.527787   0.000000
     9  H    2.955496   3.926674   1.769878   0.000000
    10  H    2.016440   5.946335   3.770529   3.905889   0.000000
    11  H    3.171203   5.158323   3.130815   2.633229   2.483127
    12  H    3.047291   4.061151   2.561286   3.133022   2.596682
                   11         12
    11  H    0.000000
    12  H    1.755439   0.000000
 Symmetry turned off by external request.
 Stoichiometry    C3H6O3
 Framework group  C1[X(C3H6O3)]
 Deg. of freedom    30
 Full point group                 C1      NOp   1
 Rotational constants (GHZ):           6.3344958           1.9677202           1.6545524
 Standard basis: 6-31+G(d) (6D, 7F)
   126 basis functions,   216 primitive gaussians,   126 cartesian basis functions
    24 alpha electrons       24 beta electrons
       nuclear repulsion energy       231.3240820418 Hartrees.
 NAtoms=   12 NActive=   12 NUniq=   12 SFac= 1.00D+00 NAtFMM=   60 NAOKFM=F Big=F
 Integral buffers will be    131072 words long.
 Raffenetti 2 integral format.
 Two-electron integral symmetry is turned off.
 One-electron integrals computed using PRISM.
 NBasis=   126 RedAO= T EigKep=  9.22D-05  NBF=   126
 NBsUse=   126 1.00D-06 EigRej= -1.00D+00 NBFU=   126
 Initial guess from the checkpoint file:  "/scratch/bell/zhao922/YARP/paper-example/KHP-network/pp_0/IRC-folder/Gau-70347.chk"
 B after Tr=    -0.012030    0.028791    0.021836
         Rot=    1.000000   -0.000173   -0.000071   -0.000175 Ang=  -0.03 deg.
 ExpMin= 4.38D-02 ExpMax= 5.48D+03 ExpMxC= 8.25D+02 IAcc=3 IRadAn=         5 AccDes= 0.00D+00
 Harris functional with IExCor=  402 and IRadAn=       5 diagonalized for initial guess.
 HarFok:  IExCor=  402 AccDes= 0.00D+00 IRadAn=         5 IDoV= 1 UseB2=F ITyADJ=14
 ICtDFT=  3500011 ScaDFX=  1.000000  1.000000  1.000000  1.000000
 FoFCou: FMM=F IPFlag=           0 FMFlag=      100000 FMFlg1=           0
         NFxFlg=           0 DoJE=T BraDBF=F KetDBF=T FulRan=T
         wScrn=  0.000000 ICntrl=       500 IOpCl=  0 I1Cent=   200000004 NGrid=           0
         NMat0=    1 NMatS0=      1 NMatT0=    0 NMatD0=    1 NMtDS0=    0 NMtDT0=    0
 Symmetry not used in FoFCou.
 Keep R1 ints in memory in canonical form, NReq=47237243.
 Requested convergence on RMS density matrix=1.00D-08 within 128 cycles.
 Requested convergence on MAX density matrix=1.00D-06.
 Requested convergence on             energy=1.00D-06.
 No special actions if energy rises.
 SCF Done:  E(RB3LYP) =  -343.417341186     A.U. after   14 cycles
            NFock= 14  Conv=0.40D-08     -V/T= 2.0093
 DoSCS=F DFT=T ScalE2(SS,OS)=  1.000000  1.000000
 Range of M.O.s used for correlation:     1   126
 NBasis=   126 NAE=    24 NBE=    24 NFC=     0 NFV=     0
 NROrb=    126 NOA=    24 NOB=    24 NVA=   102 NVB=   102

 **** Warning!!: The largest alpha MO coefficient is  0.39113663D+02

 Symmetrizing basis deriv contribution to polar:
 IMax=3 JMax=2 DiffMx= 0.00D+00
 G2DrvN: will do    13 centers at a time, making    1 passes.
 Calling FoFCou, ICntrl=  3107 FMM=F I1Cent=   0 AccDes= 0.00D+00.
 End of G2Drv F.D. properties file   721 does not exist.
 End of G2Drv F.D. properties file   722 does not exist.
 End of G2Drv F.D. properties file   788 does not exist.
          IDoAtm=111111111111
          Differentiating once with respect to nuclear coordinates.
 Keep R1 ints in memory in canonical form, NReq=47193265.
          There are    39 degrees of freedom in the 1st order CPHF.  IDoFFX=6 NUNeed=     0.
     33 vectors produced by pass  0 Test12= 6.28D-15 2.56D-09 XBig12= 2.81D-01 3.62D-01.
 AX will form    33 AO Fock derivatives at one time.
     33 vectors produced by pass  1 Test12= 6.28D-15 2.56D-09 XBig12= 2.52D-01 1.82D-01.
     33 vectors produced by pass  2 Test12= 6.28D-15 2.56D-09 XBig12= 2.72D-03 1.13D-02.
     33 vectors produced by pass  3 Test12= 6.28D-15 2.56D-09 XBig12= 1.51D-05 5.07D-04.
     33 vectors produced by pass  4 Test12= 6.28D-15 2.56D-09 XBig12= 2.17D-08 1.83D-05.
     27 vectors produced by pass  5 Test12= 6.28D-15 2.56D-09 XBig12= 2.20D-11 5.68D-07.
      4 vectors produced by pass  6 Test12= 6.28D-15 2.56D-09 XBig12= 2.15D-14 1.95D-08.
 InvSVY:  IOpt=1 It=  1 EMax= 2.66D-15
 Solved reduced A of dimension   196 with    33 vectors.
 End of Minotr F.D. properties file   721 does not exist.
 End of Minotr F.D. properties file   722 does not exist.
 End of Minotr F.D. properties file   788 does not exist.
 Calling FoFJK, ICntrl=    100127 FMM=F ISym2X=0 I1Cent= 0 IOpClX= 0 NMat=1 NMatS=1 NMatT=0.
 -------------------------------------------------------------------
 Center     Atomic                   Forces (Hartrees/Bohr)
 Number     Number              X              Y              Z
 -------------------------------------------------------------------
      1        6          -0.005617116   -0.005346123   -0.001809127
      2        6          -0.000267511    0.002151093   -0.000277166
      3        6           0.000089477    0.000093035   -0.000029710
      4        8           0.007655181   -0.007637200    0.004292844
      5        8           0.001145919    0.002211618    0.000004433
      6        8          -0.000130572    0.000111685    0.000050865
      7        1           0.002382662    0.004828768    0.000104070
      8        1          -0.005066639    0.001269120   -0.002514316
      9        1           0.000009572    0.002294513   -0.000075158
     10        1           0.000019085   -0.000016869    0.000033537
     11        1          -0.000227070    0.000129130    0.000244287
     12        1           0.000007011   -0.000088771   -0.000024560
 -------------------------------------------------------------------
 Cartesian Forces:  Max     0.007655181 RMS     0.002777937
 IRC-IRC-IRC-IRC-IRC-IRC-IRC-IRC-IRC-IRC-IRC-IRC-IRC-IRC-IRC-IRC-IRC-IRC
 Pt  1 Step number   1 out of a maximum of 100
 Modified Bulirsch-Stoer Extrapolation Cycles:
    EPS =    0.000010000000000
      PEZero:  N= 2 I= 1 D=  4.20D-04 Err=  6.77D-04
      PEZero:  N= 3 I= 2 D=  4.20D-04 Err=  4.51D-04
      PEZero:  N= 3 I= 1 D=  8.40D-04 Err=  3.90D-07
 Maximum DWI energy   std dev =  0.000019740 at pt    17
 Maximum DWI gradient std dev =  0.047615759 at pt    21
 CORRECTOR INTEGRATION CONVERGENCE:
   Recorrection delta-x convergence threshold:    0.010000
   Delta-x Convergence Met
 Point Number:   1          Path Number:   1
   CHANGE IN THE REACTION COORDINATE =    0.16101
   NET REACTION COORDINATE UP TO THIS POINT =    0.16101
  # OF POINTS ALONG THE PATH =   1
  # OF STEPS =   1

 Calculating another point on the path.
 IRC-IRC-IRC-IRC-IRC-IRC-IRC-IRC-IRC-IRC-IRC-IRC-IRC-IRC-IRC-IRC-IRC-IRC
                          Input orientation:                          
 ---------------------------------------------------------------------
 Center     Atomic      Atomic             Coordinates (Angstroms)
 Number     Number       Type             X           Y           Z
 ---------------------------------------------------------------------
      1          6           0        0.436970    0.460249   -0.516331
      2          6           0       -0.708885    0.915600    0.388537
      3          6           0       -1.936593    0.042229    0.269550
      4          8           0        1.658147    0.846070   -0.176761
      5          8           0        2.007394   -0.992865    0.325931
      6          8           0       -1.968043   -1.015419   -0.324731
      7          1           0        2.787385   -1.514019    0.639348
      8          1           0        0.534715   -0.689700   -0.342214
      9          1           0        0.247093    0.488283   -1.603732
     10          1           0       -2.845324    0.422618    0.783393
     11          1           0       -0.990775    1.959218    0.184036
     12          1           0       -0.377289    0.893971    1.437570
 ---------------------------------------------------------------------
                    Distance matrix (angstroms):
                    1          2          3          4          5
     1  C    0.000000
     2  C    1.529416   0.000000
     3  C    2.534985   1.511357   0.000000
     4  O    1.324930   2.434592   3.710459   0.000000
     5  O    2.299387   3.320291   4.077945   1.938132   0.000000
     6  O    2.828143   2.413102   1.213581   4.078760   4.028396
     7  H    3.279906   4.264957   4.987447   2.740663   0.989049
     8  H    1.167156   2.158130   2.649025   1.909990   1.645331
     9  H    1.104209   2.250695   2.911466   2.038462   3.002675
    10  H    3.530460   2.227849   1.111091   4.624116   5.075602
    11  H    2.185378   1.100192   2.139329   2.895869   4.209982
    12  H    2.160755   1.100406   2.126303   2.598337   3.237685
                    6          7          8          9         10
     6  O    0.000000
     7  H    4.877719   0.000000
     8  H    2.523924   2.591812   0.000000
     9  H    2.967118   3.936204   1.749799   0.000000
    10  H    2.016311   5.958080   3.732144   3.907137   0.000000
    11  H    3.172122   5.152201   3.101745   2.625277   2.481878
    12  H    3.046633   4.055950   2.550960   3.131126   2.596405
                   11         12
    11  H    0.000000
    12  H    1.755695   0.000000
 Symmetry turned off by external request.
 Stoichiometry    C3H6O3
 Framework group  C1[X(C3H6O3)]
 Deg. of freedom    30
 Full point group                 C1      NOp   1
 Rotational constants (GHZ):           6.3609618           1.9650904           1.6547224
 Standard basis: 6-31+G(d) (6D, 7F)
   126 basis functions,   216 primitive gaussians,   126 cartesian basis functions
    24 alpha electrons       24 beta electrons
       nuclear repulsion energy       231.3005076642 Hartrees.
 NAtoms=   12 NActive=   12 NUniq=   12 SFac= 1.00D+00 NAtFMM=   60 NAOKFM=F Big=F
 Integral buffers will be    131072 words long.
 Raffenetti 2 integral format.
 Two-electron integral symmetry is turned off.
 One-electron integrals computed using PRISM.
 NBasis=   126 RedAO= T EigKep=  9.20D-05  NBF=   126
 NBsUse=   126 1.00D-06 EigRej= -1.00D+00 NBFU=   126
 Initial guess from the checkpoint file:  "/scratch/bell/zhao922/YARP/paper-example/KHP-network/pp_0/IRC-folder/Gau-70347.chk"
 B after Tr=    -0.000372    0.001581   -0.000413
         Rot=    1.000000   -0.000171   -0.000076   -0.000221 Ang=  -0.03 deg.
 ExpMin= 4.38D-02 ExpMax= 5.48D+03 ExpMxC= 8.25D+02 IAcc=3 IRadAn=         5 AccDes= 0.00D+00
 Harris functional with IExCor=  402 and IRadAn=       5 diagonalized for initial guess.
 HarFok:  IExCor=  402 AccDes= 0.00D+00 IRadAn=         5 IDoV= 1 UseB2=F ITyADJ=14
 ICtDFT=  3500011 ScaDFX=  1.000000  1.000000  1.000000  1.000000
 FoFCou: FMM=F IPFlag=           0 FMFlag=      100000 FMFlg1=           0
         NFxFlg=           0 DoJE=T BraDBF=F KetDBF=T FulRan=T
         wScrn=  0.000000 ICntrl=       500 IOpCl=  0 I1Cent=   200000004 NGrid=           0
         NMat0=    1 NMatS0=      1 NMatT0=    0 NMatD0=    1 NMtDS0=    0 NMtDT0=    0
 Symmetry not used in FoFCou.
 Keep R1 ints in memory in canonical form, NReq=47237243.
 Requested convergence on RMS density matrix=1.00D-08 within 128 cycles.
 Requested convergence on MAX density matrix=1.00D-06.
 Requested convergence on             energy=1.00D-06.
 No special actions if energy rises.
 EnCoef did     8 forward-backward iterations
 EnCoef did     9 forward-backward iterations
 SCF Done:  E(RB3LYP) =  -343.419282303     A.U. after   13 cycles
            NFock= 13  Conv=0.89D-08     -V/T= 2.0093
 DoSCS=F DFT=T ScalE2(SS,OS)=  1.000000  1.000000
 Range of M.O.s used for correlation:     1   126
 NBasis=   126 NAE=    24 NBE=    24 NFC=     0 NFV=     0
 NROrb=    126 NOA=    24 NOB=    24 NVA=   102 NVB=   102

 **** Warning!!: The largest alpha MO coefficient is  0.39596257D+02

 Symmetrizing basis deriv contribution to polar:
 IMax=3 JMax=2 DiffMx= 0.00D+00
 G2DrvN: will do    13 centers at a time, making    1 passes.
 Calling FoFCou, ICntrl=  3107 FMM=F I1Cent=   0 AccDes= 0.00D+00.
 End of G2Drv F.D. properties file   721 does not exist.
 End of G2Drv F.D. properties file   722 does not exist.
 End of G2Drv F.D. properties file   788 does not exist.
          IDoAtm=111111111111
          Differentiating once with respect to nuclear coordinates.
 Keep R1 ints in memory in canonical form, NReq=47193265.
          There are    39 degrees of freedom in the 1st order CPHF.  IDoFFX=6 NUNeed=     0.
     33 vectors produced by pass  0 Test12= 6.28D-15 2.56D-09 XBig12= 2.66D-01 3.42D-01.
 AX will form    33 AO Fock derivatives at one time.
     33 vectors produced by pass  1 Test12= 6.28D-15 2.56D-09 XBig12= 2.43D-01 1.66D-01.
     33 vectors produced by pass  2 Test12= 6.28D-15 2.56D-09 XBig12= 2.67D-03 1.11D-02.
     33 vectors produced by pass  3 Test12= 6.28D-15 2.56D-09 XBig12= 1.44D-05 5.10D-04.
     33 vectors produced by pass  4 Test12= 6.28D-15 2.56D-09 XBig12= 2.48D-08 2.23D-05.
     28 vectors produced by pass  5 Test12= 6.28D-15 2.56D-09 XBig12= 2.69D-11 7.86D-07.
      4 vectors produced by pass  6 Test12= 6.28D-15 2.56D-09 XBig12= 2.79D-14 2.67D-08.
 InvSVY:  IOpt=1 It=  1 EMax= 2.00D-15
 Solved reduced A of dimension   197 with    33 vectors.
 End of Minotr F.D. properties file   721 does not exist.
 End of Minotr F.D. properties file   722 does not exist.
 End of Minotr F.D. properties file   788 does not exist.
 Calling FoFJK, ICntrl=    100127 FMM=F ISym2X=0 I1Cent= 0 IOpClX= 0 NMat=1 NMatS=1 NMatT=0.
 -------------------------------------------------------------------
 Center     Atomic                   Forces (Hartrees/Bohr)
 Number     Number              X              Y              Z
 -------------------------------------------------------------------
      1        6          -0.009078480   -0.007931929   -0.003251366
      2        6          -0.000478680    0.003602108   -0.000484580
      3        6           0.000059688    0.000250737    0.000003659
      4        8           0.011932011   -0.015760283    0.007631815
      5        8           0.001465272    0.005778726   -0.000429834
      6        8          -0.000225431    0.000253020    0.000120876
      7        1           0.003903515    0.007988809    0.000057050
      8        1          -0.007250916    0.001910538   -0.003984478
      9        1           0.000008909    0.003853380   -0.000092109
     10        1           0.000019070   -0.000042720    0.000065309
     11        1          -0.000380520    0.000240759    0.000415632
     12        1           0.000025562   -0.000143143   -0.000051974
 -------------------------------------------------------------------
 Cartesian Forces:  Max     0.015760283 RMS     0.004774634
 IRC-IRC-IRC-IRC-IRC-IRC-IRC-IRC-IRC-IRC-IRC-IRC-IRC-IRC-IRC-IRC-IRC-IRC
 Pt  2 Step number   1 out of a maximum of 100
 Modified Bulirsch-Stoer Extrapolation Cycles:
    EPS =    0.000010000000000
      PEZero:  N= 2 I= 1 D=  8.40D-04 Err=  6.61D-05
      PEZero:  N= 3 I= 2 D=  8.40D-04 Err=  4.41D-05
      PEZero:  N= 3 I= 1 D=  1.68D-03 Err=  2.75D-07
 Maximum DWI energy   std dev =  0.000012008 at pt    27
 Maximum DWI gradient std dev =  0.028881672 at pt    25
 CORRECTOR INTEGRATION CONVERGENCE:
   Recorrection delta-x convergence threshold:    0.010000
   Delta-x Convergence Met
 Point Number:   2          Path Number:   1
   CHANGE IN THE REACTION COORDINATE =    0.16112
   NET REACTION COORDINATE UP TO THIS POINT =    0.32213
  # OF POINTS ALONG THE PATH =   2
  # OF STEPS =   1

 Calculating another point on the path.
 IRC-IRC-IRC-IRC-IRC-IRC-IRC-IRC-IRC-IRC-IRC-IRC-IRC-IRC-IRC-IRC-IRC-IRC
                          Input orientation:                          
 ---------------------------------------------------------------------
 Center     Atomic      Atomic             Coordinates (Angstroms)
 Number     Number       Type             X           Y           Z
 ---------------------------------------------------------------------
      1          6           0        0.432476    0.456462   -0.517969
      2          6           0       -0.709128    0.917395    0.388290
      3          6           0       -1.936585    0.042374    0.269564
      4          8           0        1.662502    0.839652   -0.173814
      5          8           0        2.007669   -0.990220    0.325617
      6          8           0       -1.968131   -1.015310   -0.324680
      7          1           0        2.813542   -1.468448    0.640610
      8          1           0        0.494819   -0.678547   -0.365355
      9          1           0        0.247043    0.511335   -1.604741
     10          1           0       -2.845252    0.422330    0.783814
     11          1           0       -0.993040    1.960710    0.186527
     12          1           0       -0.377099    0.893129    1.437238
 ---------------------------------------------------------------------
                    Distance matrix (angstroms):
                    1          2          3          4          5
     1  C    0.000000
     2  C    1.528733   0.000000
     3  C    2.530638   1.512087   0.000000
     4  O    1.333507   2.438572   3.712905   0.000000
     5  O    2.299077   3.320226   4.077564   1.927952   0.000000
     6  O    2.822479   2.414283   1.213597   4.079846   4.028709
     7  H    3.273692   4.262056   4.998396   2.704719   0.988613
     8  H    1.146919   2.136469   2.614302   1.924864   1.692128
     9  H    1.103843   2.247514   2.915678   2.039330   3.013428
    10  H    3.526940   2.228128   1.111078   4.627208   5.075045
    11  H    2.188875   1.099919   2.139436   2.904913   4.210889
    12  H    2.160770   1.100511   2.125851   2.599678   3.235711
                    6          7          8          9         10
     6  O    0.000000
     7  H    4.899134   0.000000
     8  H    2.486199   2.648091   0.000000
     9  H    2.979295   3.943103   1.735883   0.000000
    10  H    2.016162   5.968040   3.699810   3.908376   0.000000
    11  H    3.173142   5.143480   3.079607   2.616703   2.480737
    12  H    3.045961   4.048686   2.545536   3.128731   2.596227
                   11         12
    11  H    0.000000
    12  H    1.755958   0.000000
 Symmetry turned off by external request.
 Stoichiometry    C3H6O3
 Framework group  C1[X(C3H6O3)]
 Deg. of freedom    30
 Full point group                 C1      NOp   1
 Rotational constants (GHZ):           6.3907402           1.9624699           1.6550771
 Standard basis: 6-31+G(d) (6D, 7F)
   126 basis functions,   216 primitive gaussians,   126 cartesian basis functions
    24 alpha electrons       24 beta electrons
       nuclear repulsion energy       231.2930981904 Hartrees.
 NAtoms=   12 NActive=   12 NUniq=   12 SFac= 1.00D+00 NAtFMM=   60 NAOKFM=F Big=F
 Integral buffers will be    131072 words long.
 Raffenetti 2 integral format.
 Two-electron integral symmetry is turned off.
 One-electron integrals computed using PRISM.
 NBasis=   126 RedAO= T EigKep=  9.19D-05  NBF=   126
 NBsUse=   126 1.00D-06 EigRej= -1.00D+00 NBFU=   126
 Initial guess from the checkpoint file:  "/scratch/bell/zhao922/YARP/paper-example/KHP-network/pp_0/IRC-folder/Gau-70347.chk"
 B after Tr=    -0.000297    0.001578   -0.000409
         Rot=    1.000000   -0.000173   -0.000077   -0.000233 Ang=  -0.03 deg.
 ExpMin= 4.38D-02 ExpMax= 5.48D+03 ExpMxC= 8.25D+02 IAcc=3 IRadAn=         5 AccDes= 0.00D+00
 Harris functional with IExCor=  402 and IRadAn=       5 diagonalized for initial guess.
 HarFok:  IExCor=  402 AccDes= 0.00D+00 IRadAn=         5 IDoV= 1 UseB2=F ITyADJ=14
 ICtDFT=  3500011 ScaDFX=  1.000000  1.000000  1.000000  1.000000
 FoFCou: FMM=F IPFlag=           0 FMFlag=      100000 FMFlg1=           0
         NFxFlg=           0 DoJE=T BraDBF=F KetDBF=T FulRan=T
         wScrn=  0.000000 ICntrl=       500 IOpCl=  0 I1Cent=   200000004 NGrid=           0
         NMat0=    1 NMatS0=      1 NMatT0=    0 NMatD0=    1 NMtDS0=    0 NMtDT0=    0
 Symmetry not used in FoFCou.
 Keep R1 ints in memory in canonical form, NReq=47237243.
 Requested convergence on RMS density matrix=1.00D-08 within 128 cycles.
 Requested convergence on MAX density matrix=1.00D-06.
 Requested convergence on             energy=1.00D-06.
 No special actions if energy rises.
 EnCoef did     7 forward-backward iterations
 SCF Done:  E(RB3LYP) =  -343.421912126     A.U. after   13 cycles
            NFock= 13  Conv=0.77D-08     -V/T= 2.0093
 DoSCS=F DFT=T ScalE2(SS,OS)=  1.000000  1.000000
 Range of M.O.s used for correlation:     1   126
 NBasis=   126 NAE=    24 NBE=    24 NFC=     0 NFV=     0
 NROrb=    126 NOA=    24 NOB=    24 NVA=   102 NVB=   102

 **** Warning!!: The largest alpha MO coefficient is  0.39851322D+02

 Symmetrizing basis deriv contribution to polar:
 IMax=3 JMax=2 DiffMx= 0.00D+00
 G2DrvN: will do    13 centers at a time, making    1 passes.
 Calling FoFCou, ICntrl=  3107 FMM=F I1Cent=   0 AccDes= 0.00D+00.
 End of G2Drv F.D. properties file   721 does not exist.
 End of G2Drv F.D. properties file   722 does not exist.
 End of G2Drv F.D. properties file   788 does not exist.
          IDoAtm=111111111111
          Differentiating once with respect to nuclear coordinates.
 Keep R1 ints in memory in canonical form, NReq=47193265.
          There are    39 degrees of freedom in the 1st order CPHF.  IDoFFX=6 NUNeed=     0.
     33 vectors produced by pass  0 Test12= 6.28D-15 2.56D-09 XBig12= 2.48D-01 3.21D-01.
 AX will form    33 AO Fock derivatives at one time.
     33 vectors produced by pass  1 Test12= 6.28D-15 2.56D-09 XBig12= 2.29D-01 1.55D-01.
     33 vectors produced by pass  2 Test12= 6.28D-15 2.56D-09 XBig12= 2.58D-03 1.07D-02.
     33 vectors produced by pass  3 Test12= 6.28D-15 2.56D-09 XBig12= 1.27D-05 4.45D-04.
     33 vectors produced by pass  4 Test12= 6.28D-15 2.56D-09 XBig12= 2.41D-08 2.33D-05.
     28 vectors produced by pass  5 Test12= 6.28D-15 2.56D-09 XBig12= 2.62D-11 7.38D-07.
      5 vectors produced by pass  6 Test12= 6.28D-15 2.56D-09 XBig12= 2.54D-14 2.43D-08.
 InvSVY:  IOpt=1 It=  1 EMax= 1.67D-15
 Solved reduced A of dimension   198 with    33 vectors.
 End of Minotr F.D. properties file   721 does not exist.
 End of Minotr F.D. properties file   722 does not exist.
 End of Minotr F.D. properties file   788 does not exist.
 Calling FoFJK, ICntrl=    100127 FMM=F ISym2X=0 I1Cent= 0 IOpClX= 0 NMat=1 NMatS=1 NMatT=0.
 -------------------------------------------------------------------
 Center     Atomic                   Forces (Hartrees/Bohr)
 Number     Number              X              Y              Z
 -------------------------------------------------------------------
      1        6          -0.011593240   -0.008509450   -0.004598907
      2        6          -0.000640546    0.004615890   -0.000639217
      3        6          -0.000042476    0.000433377    0.000080084
      4        8           0.014587409   -0.023591876    0.010346488
      5        8           0.001452967    0.009728033   -0.001024633
      6        8          -0.000309917    0.000400118    0.000188531
      7        1           0.004722403    0.010324411   -0.000124793
      8        1          -0.007772183    0.001510392   -0.004735985
      9        1           0.000018445    0.005010952   -0.000049968
     10        1           0.000009555   -0.000070296    0.000095591
     11        1          -0.000479936    0.000327048    0.000539177
     12        1           0.000047520   -0.000178600   -0.000076368
 -------------------------------------------------------------------
 Cartesian Forces:  Max     0.023591876 RMS     0.006378379
 IRC-IRC-IRC-IRC-IRC-IRC-IRC-IRC-IRC-IRC-IRC-IRC-IRC-IRC-IRC-IRC-IRC-IRC
 Pt  3 Step number   1 out of a maximum of 100
 Modified Bulirsch-Stoer Extrapolation Cycles:
    EPS =    0.000010000000000
      PEZero:  N= 2 I= 1 D=  8.40D-04 Err=  7.00D-05
      PEZero:  N= 3 I= 2 D=  8.40D-04 Err=  4.66D-05
      PEZero:  N= 3 I= 1 D=  1.68D-03 Err=  1.87D-07
 Maximum DWI energy   std dev =  0.000007214 at pt    27
 Maximum DWI gradient std dev =  0.016086432 at pt    24
 CORRECTOR INTEGRATION CONVERGENCE:
   Recorrection delta-x convergence threshold:    0.010000
   Delta-x Convergence Met
 Point Number:   3          Path Number:   1
   CHANGE IN THE REACTION COORDINATE =    0.16114
   NET REACTION COORDINATE UP TO THIS POINT =    0.48327
  # OF POINTS ALONG THE PATH =   3
  # OF STEPS =   1

 Calculating another point on the path.
 IRC-IRC-IRC-IRC-IRC-IRC-IRC-IRC-IRC-IRC-IRC-IRC-IRC-IRC-IRC-IRC-IRC-IRC
                          Input orientation:                          
 ---------------------------------------------------------------------
 Center     Atomic      Atomic             Coordinates (Angstroms)
 Number     Number       Type             X           Y           Z
 ---------------------------------------------------------------------
      1          6           0        0.427856    0.453212   -0.519841
      2          6           0       -0.709386    0.919228    0.388031
      3          6           0       -1.936626    0.042566    0.269611
      4          8           0        1.666796    0.832053   -0.170614
      5          8           0        2.007908   -0.986850    0.325183
      6          8           0       -1.968229   -1.015175   -0.324616
      7          1           0        2.837969   -1.420391    0.640572
      8          1           0        0.460541   -0.671470   -0.387565
      9          1           0        0.247089    0.535369   -1.605255
     10          1           0       -2.845247    0.421965    0.784304
     11          1           0       -0.995300    1.962300    0.189100
     12          1           0       -0.376841    0.892289    1.436858
 ---------------------------------------------------------------------
                    Distance matrix (angstroms):
                    1          2          3          4          5
     1  C    0.000000
     2  C    1.527979   0.000000
     3  C    2.526388   1.512838   0.000000
     4  O    1.341810   2.442524   3.715070   0.000000
     5  O    2.298784   3.319754   4.077025   1.915876   0.000000
     6  O    2.817001   2.415465   1.213640   4.080365   4.028983
     7  H    3.265821   4.256914   5.007456   2.665178   0.988144
     8  H    1.132905   2.121461   2.586144   1.939768   1.732575
     9  H    1.103427   2.243966   2.920032   2.040046   3.023942
    10  H    3.523488   2.228498   1.111055   4.630181   5.074314
    11  H    2.192103   1.099690   2.139616   2.914380   4.211325
    12  H    2.160786   1.100614   2.125423   2.600779   3.233267
                    6          7          8          9         10
     6  O    0.000000
     7  H    4.918875   0.000000
     8  H    2.453777   2.696314   0.000000
     9  H    2.991965   3.947328   1.727655   0.000000
    10  H    2.015995   5.976109   3.673841   3.909654   0.000000
    11  H    3.174249   5.132287   3.064108   2.607561   2.479759
    12  H    3.045279   4.039500   2.544616   3.125881   2.596162
                   11         12
    11  H    0.000000
    12  H    1.756222   0.000000
 Symmetry turned off by external request.
 Stoichiometry    C3H6O3
 Framework group  C1[X(C3H6O3)]
 Deg. of freedom    30
 Full point group                 C1      NOp   1
 Rotational constants (GHZ):           6.4243242           1.9598964           1.6556661
 Standard basis: 6-31+G(d) (6D, 7F)
   126 basis functions,   216 primitive gaussians,   126 cartesian basis functions
    24 alpha electrons       24 beta electrons
       nuclear repulsion energy       231.3051292111 Hartrees.
 NAtoms=   12 NActive=   12 NUniq=   12 SFac= 1.00D+00 NAtFMM=   60 NAOKFM=F Big=F
 Integral buffers will be    131072 words long.
 Raffenetti 2 integral format.
 Two-electron integral symmetry is turned off.
 One-electron integrals computed using PRISM.
 NBasis=   126 RedAO= T EigKep=  9.18D-05  NBF=   126
 NBsUse=   126 1.00D-06 EigRej= -1.00D+00 NBFU=   126
 Initial guess from the checkpoint file:  "/scratch/bell/zhao922/YARP/paper-example/KHP-network/pp_0/IRC-folder/Gau-70347.chk"
 B after Tr=    -0.000218    0.001567   -0.000405
         Rot=    1.000000   -0.000176   -0.000077   -0.000243 Ang=  -0.04 deg.
 ExpMin= 4.38D-02 ExpMax= 5.48D+03 ExpMxC= 8.25D+02 IAcc=3 IRadAn=         5 AccDes= 0.00D+00
 Harris functional with IExCor=  402 and IRadAn=       5 diagonalized for initial guess.
 HarFok:  IExCor=  402 AccDes= 0.00D+00 IRadAn=         5 IDoV= 1 UseB2=F ITyADJ=14
 ICtDFT=  3500011 ScaDFX=  1.000000  1.000000  1.000000  1.000000
 FoFCou: FMM=F IPFlag=           0 FMFlag=      100000 FMFlg1=           0
         NFxFlg=           0 DoJE=T BraDBF=F KetDBF=T FulRan=T
         wScrn=  0.000000 ICntrl=       500 IOpCl=  0 I1Cent=   200000004 NGrid=           0
         NMat0=    1 NMatS0=      1 NMatT0=    0 NMatD0=    1 NMtDS0=    0 NMtDT0=    0
 Symmetry not used in FoFCou.
 Keep R1 ints in memory in canonical form, NReq=47237243.
 Requested convergence on RMS density matrix=1.00D-08 within 128 cycles.
 Requested convergence on MAX density matrix=1.00D-06.
 Requested convergence on             energy=1.00D-06.
 No special actions if energy rises.
 EnCoef did     5 forward-backward iterations
 SCF Done:  E(RB3LYP) =  -343.424995192     A.U. after   13 cycles
            NFock= 13  Conv=0.66D-08     -V/T= 2.0094
 DoSCS=F DFT=T ScalE2(SS,OS)=  1.000000  1.000000
 Range of M.O.s used for correlation:     1   126
 NBasis=   126 NAE=    24 NBE=    24 NFC=     0 NFV=     0
 NROrb=    126 NOA=    24 NOB=    24 NVA=   102 NVB=   102

 **** Warning!!: The largest alpha MO coefficient is  0.39940295D+02

 Symmetrizing basis deriv contribution to polar:
 IMax=3 JMax=2 DiffMx= 0.00D+00
 G2DrvN: will do    13 centers at a time, making    1 passes.
 Calling FoFCou, ICntrl=  3107 FMM=F I1Cent=   0 AccDes= 0.00D+00.
 End of G2Drv F.D. properties file   721 does not exist.
 End of G2Drv F.D. properties file   722 does not exist.
 End of G2Drv F.D. properties file   788 does not exist.
          IDoAtm=111111111111
          Differentiating once with respect to nuclear coordinates.
 Keep R1 ints in memory in canonical form, NReq=47193265.
          There are    39 degrees of freedom in the 1st order CPHF.  IDoFFX=6 NUNeed=     0.
     33 vectors produced by pass  0 Test12= 6.28D-15 2.56D-09 XBig12= 2.30D-01 2.99D-01.
 AX will form    33 AO Fock derivatives at one time.
     33 vectors produced by pass  1 Test12= 6.28D-15 2.56D-09 XBig12= 2.11D-01 1.47D-01.
     33 vectors produced by pass  2 Test12= 6.28D-15 2.56D-09 XBig12= 2.48D-03 1.03D-02.
     33 vectors produced by pass  3 Test12= 6.28D-15 2.56D-09 XBig12= 1.06D-05 3.95D-04.
     33 vectors produced by pass  4 Test12= 6.28D-15 2.56D-09 XBig12= 2.01D-08 2.15D-05.
     28 vectors produced by pass  5 Test12= 6.28D-15 2.56D-09 XBig12= 2.11D-11 5.85D-07.
      4 vectors produced by pass  6 Test12= 6.28D-15 2.56D-09 XBig12= 1.86D-14 1.72D-08.
 InvSVY:  IOpt=1 It=  1 EMax= 2.00D-15
 Solved reduced A of dimension   197 with    33 vectors.
 End of Minotr F.D. properties file   721 does not exist.
 End of Minotr F.D. properties file   722 does not exist.
 End of Minotr F.D. properties file   788 does not exist.
 Calling FoFJK, ICntrl=    100127 FMM=F ISym2X=0 I1Cent= 0 IOpClX= 0 NMat=1 NMatS=1 NMatT=0.
 -------------------------------------------------------------------
 Center     Atomic                   Forces (Hartrees/Bohr)
 Number     Number              X              Y              Z
 -------------------------------------------------------------------
      1        6          -0.013253120   -0.008377008   -0.005725370
      2        6          -0.000751903    0.005203573   -0.000739808
      3        6          -0.000196283    0.000611060    0.000182894
      4        8           0.016095000   -0.030862626    0.012533815
      5        8           0.001530673    0.013833512   -0.001624756
      6        8          -0.000396420    0.000560484    0.000260142
      7        1           0.004918086    0.011979044   -0.000396905
      8        1          -0.007525466    0.001158064   -0.005183616
      9        1           0.000044967    0.005803223    0.000050090
     10        1          -0.000005888   -0.000094983    0.000124408
     11        1          -0.000527739    0.000384273    0.000615155
     12        1           0.000068093   -0.000198614   -0.000096048
 -------------------------------------------------------------------
 Cartesian Forces:  Max     0.030862626 RMS     0.007746003
 IRC-IRC-IRC-IRC-IRC-IRC-IRC-IRC-IRC-IRC-IRC-IRC-IRC-IRC-IRC-IRC-IRC-IRC
 Pt  4 Step number   1 out of a maximum of 100
 Modified Bulirsch-Stoer Extrapolation Cycles:
    EPS =    0.000010000000000
      PEZero:  N= 2 I= 1 D=  8.40D-04 Err=  6.52D-05
      PEZero:  N= 3 I= 2 D=  8.40D-04 Err=  4.34D-05
      PEZero:  N= 3 I= 1 D=  1.68D-03 Err=  1.27D-07
 Maximum DWI energy   std dev =  0.000004650 at pt    27
 Maximum DWI gradient std dev =  0.011606367 at pt    24
 CORRECTOR INTEGRATION CONVERGENCE:
   Recorrection delta-x convergence threshold:    0.010000
   Delta-x Convergence Met
 Point Number:   4          Path Number:   1
   CHANGE IN THE REACTION COORDINATE =    0.16117
   NET REACTION COORDINATE UP TO THIS POINT =    0.64444
  # OF POINTS ALONG THE PATH =   4
  # OF STEPS =   1

 Calculating another point on the path.
 IRC-IRC-IRC-IRC-IRC-IRC-IRC-IRC-IRC-IRC-IRC-IRC-IRC-IRC-IRC-IRC-IRC-IRC
                          Input orientation:                          
 ---------------------------------------------------------------------
 Center     Atomic      Atomic             Coordinates (Angstroms)
 Number     Number       Type             X           Y           Z
 ---------------------------------------------------------------------
      1          6           0        0.423208    0.450402   -0.521890
      2          6           0       -0.709650    0.921031    0.387770
      3          6           0       -1.936721    0.042798    0.269690
      4          8           0        1.670982    0.823419   -0.167215
      5          8           0        2.008157   -0.982771    0.324643
      6          8           0       -1.968341   -1.015012   -0.324541
      7          1           0        2.859974   -1.371058    0.639319
      8          1           0        0.431262   -0.666674   -0.409052
      9          1           0        0.247274    0.559799   -1.605238
     10          1           0       -2.845308    0.421546    0.784860
     11          1           0       -0.997456    1.963916    0.191658
     12          1           0       -0.376530    0.891467    1.436446
 ---------------------------------------------------------------------
                    Distance matrix (angstroms):
                    1          2          3          4          5
     1  C    0.000000
     2  C    1.527201   0.000000
     3  C    2.522302   1.513585   0.000000
     4  O    1.349769   2.446415   3.716959   0.000000
     5  O    2.298405   3.318874   4.076381   1.902087   0.000000
     6  O    2.811742   2.416599   1.213701   4.080350   4.029271
     7  H    3.256370   4.249607   5.014369   2.622962   0.987613
     8  H    1.122789   2.111258   2.563471   1.953400   1.767718
     9  H    1.102979   2.240150   2.924462   2.040674   3.033920
    10  H    3.520175   2.228946   1.111026   4.633015   5.073464
    11  H    2.195032   1.099501   2.139861   2.924053   4.211219
    12  H    2.160833   1.100710   2.125030   2.601666   3.230419
                    6          7          8          9         10
     6  O    0.000000
     7  H    4.936438   0.000000
     8  H    2.426227   2.737495   0.000000
     9  H    3.004857   3.948727   1.723064   0.000000
    10  H    2.015822   5.982044   3.653157   3.910977   0.000000
    11  H    3.175388   5.118810   3.053210   2.598025   2.478982
    12  H    3.044601   4.028572   2.546800   3.122655   2.596200
                   11         12
    11  H    0.000000
    12  H    1.756471   0.000000
 Symmetry turned off by external request.
 Stoichiometry    C3H6O3
 Framework group  C1[X(C3H6O3)]
 Deg. of freedom    30
 Full point group                 C1      NOp   1
 Rotational constants (GHZ):           6.4615639           1.9574027           1.6564949
 Standard basis: 6-31+G(d) (6D, 7F)
   126 basis functions,   216 primitive gaussians,   126 cartesian basis functions
    24 alpha electrons       24 beta electrons
       nuclear repulsion energy       231.3418568248 Hartrees.
 NAtoms=   12 NActive=   12 NUniq=   12 SFac= 1.00D+00 NAtFMM=   60 NAOKFM=F Big=F
 Integral buffers will be    131072 words long.
 Raffenetti 2 integral format.
 Two-electron integral symmetry is turned off.
 One-electron integrals computed using PRISM.
 NBasis=   126 RedAO= T EigKep=  9.17D-05  NBF=   126
 NBsUse=   126 1.00D-06 EigRej= -1.00D+00 NBFU=   126
 Initial guess from the checkpoint file:  "/scratch/bell/zhao922/YARP/paper-example/KHP-network/pp_0/IRC-folder/Gau-70347.chk"
 B after Tr=    -0.000162    0.001555   -0.000405
         Rot=    1.000000   -0.000180   -0.000076   -0.000247 Ang=  -0.04 deg.
 ExpMin= 4.38D-02 ExpMax= 5.48D+03 ExpMxC= 8.25D+02 IAcc=3 IRadAn=         5 AccDes= 0.00D+00
 Harris functional with IExCor=  402 and IRadAn=       5 diagonalized for initial guess.
 HarFok:  IExCor=  402 AccDes= 0.00D+00 IRadAn=         5 IDoV= 1 UseB2=F ITyADJ=14
 ICtDFT=  3500011 ScaDFX=  1.000000  1.000000  1.000000  1.000000
 FoFCou: FMM=F IPFlag=           0 FMFlag=      100000 FMFlg1=           0
         NFxFlg=           0 DoJE=T BraDBF=F KetDBF=T FulRan=T
         wScrn=  0.000000 ICntrl=       500 IOpCl=  0 I1Cent=   200000004 NGrid=           0
         NMat0=    1 NMatS0=      1 NMatT0=    0 NMatD0=    1 NMtDS0=    0 NMtDT0=    0
 Symmetry not used in FoFCou.
 Keep R1 ints in memory in canonical form, NReq=47237243.
 Requested convergence on RMS density matrix=1.00D-08 within 128 cycles.
 Requested convergence on MAX density matrix=1.00D-06.
 Requested convergence on             energy=1.00D-06.
 No special actions if energy rises.
 EnCoef did     4 forward-backward iterations
 SCF Done:  E(RB3LYP) =  -343.428398222     A.U. after   13 cycles
            NFock= 13  Conv=0.57D-08     -V/T= 2.0094
 DoSCS=F DFT=T ScalE2(SS,OS)=  1.000000  1.000000
 Range of M.O.s used for correlation:     1   126
 NBasis=   126 NAE=    24 NBE=    24 NFC=     0 NFV=     0
 NROrb=    126 NOA=    24 NOB=    24 NVA=   102 NVB=   102

 **** Warning!!: The largest alpha MO coefficient is  0.39926355D+02

 Symmetrizing basis deriv contribution to polar:
 IMax=3 JMax=2 DiffMx= 0.00D+00
 G2DrvN: will do    13 centers at a time, making    1 passes.
 Calling FoFCou, ICntrl=  3107 FMM=F I1Cent=   0 AccDes= 0.00D+00.
 End of G2Drv F.D. properties file   721 does not exist.
 End of G2Drv F.D. properties file   722 does not exist.
 End of G2Drv F.D. properties file   788 does not exist.
          IDoAtm=111111111111
          Differentiating once with respect to nuclear coordinates.
 Keep R1 ints in memory in canonical form, NReq=47193265.
          There are    39 degrees of freedom in the 1st order CPHF.  IDoFFX=6 NUNeed=     0.
     33 vectors produced by pass  0 Test12= 6.28D-15 2.56D-09 XBig12= 2.12D-01 2.78D-01.
 AX will form    33 AO Fock derivatives at one time.
     33 vectors produced by pass  1 Test12= 6.28D-15 2.56D-09 XBig12= 1.93D-01 1.39D-01.
     33 vectors produced by pass  2 Test12= 6.28D-15 2.56D-09 XBig12= 2.38D-03 9.86D-03.
     33 vectors produced by pass  3 Test12= 6.28D-15 2.56D-09 XBig12= 8.75D-06 3.63D-04.
     33 vectors produced by pass  4 Test12= 6.28D-15 2.56D-09 XBig12= 1.57D-08 1.90D-05.
     29 vectors produced by pass  5 Test12= 6.28D-15 2.56D-09 XBig12= 1.59D-11 5.57D-07.
      4 vectors produced by pass  6 Test12= 6.28D-15 2.56D-09 XBig12= 1.35D-14 1.44D-08.
 InvSVY:  IOpt=1 It=  1 EMax= 1.78D-15
 Solved reduced A of dimension   198 with    33 vectors.
 End of Minotr F.D. properties file   721 does not exist.
 End of Minotr F.D. properties file   722 does not exist.
 End of Minotr F.D. properties file   788 does not exist.
 Calling FoFJK, ICntrl=    100127 FMM=F ISym2X=0 I1Cent= 0 IOpClX= 0 NMat=1 NMatS=1 NMatT=0.
 -------------------------------------------------------------------
 Center     Atomic                   Forces (Hartrees/Bohr)
 Number     Number              X              Y              Z
 -------------------------------------------------------------------
      1        6          -0.014304660   -0.007892494   -0.006667441
      2        6          -0.000824090    0.005455071   -0.000792359
      3        6          -0.000378685    0.000768701    0.000300267
      4        8           0.016933941   -0.037436189    0.014315757
      5        8           0.001674580    0.017964264   -0.002212871
      6        8          -0.000494730    0.000727955    0.000333728
      7        1           0.004745672    0.013098628   -0.000688630
      8        1          -0.006965052    0.000888612   -0.005459264
      9        1           0.000086432    0.006332814    0.000176747
     10        1          -0.000023551   -0.000114257    0.000151512
     11        1          -0.000535698    0.000416268    0.000653315
     12        1           0.000085841   -0.000209374   -0.000110760
 -------------------------------------------------------------------
 Cartesian Forces:  Max     0.037436189 RMS     0.008948205
 IRC-IRC-IRC-IRC-IRC-IRC-IRC-IRC-IRC-IRC-IRC-IRC-IRC-IRC-IRC-IRC-IRC-IRC
 Pt  5 Step number   1 out of a maximum of 100
 Modified Bulirsch-Stoer Extrapolation Cycles:
    EPS =    0.000010000000000
      PEZero:  N= 2 I= 1 D=  8.40D-04 Err=  5.68D-05
      PEZero:  N= 3 I= 2 D=  8.40D-04 Err=  3.78D-05
      PEZero:  N= 3 I= 1 D=  1.68D-03 Err=  1.14D-07
 Maximum DWI energy   std dev =  0.000003317 at pt    27
 Maximum DWI gradient std dev =  0.009438841 at pt    47
 CORRECTOR INTEGRATION CONVERGENCE:
   Recorrection delta-x convergence threshold:    0.010000
   Delta-x Convergence Met
 Point Number:   5          Path Number:   1
   CHANGE IN THE REACTION COORDINATE =    0.16120
   NET REACTION COORDINATE UP TO THIS POINT =    0.80564
  # OF POINTS ALONG THE PATH =   5
  # OF STEPS =   1

 Calculating another point on the path.
 IRC-IRC-IRC-IRC-IRC-IRC-IRC-IRC-IRC-IRC-IRC-IRC-IRC-IRC-IRC-IRC-IRC-IRC
                          Input orientation:                          
 ---------------------------------------------------------------------
 Center     Atomic      Atomic             Coordinates (Angstroms)
 Number     Number       Type             X           Y           Z
 ---------------------------------------------------------------------
      1          6           0        0.418606    0.447971   -0.524082
      2          6           0       -0.709915    0.922753    0.387516
      3          6           0       -1.936870    0.043060    0.269803
      4          8           0        1.675042    0.813884   -0.163656
      5          8           0        2.008437   -0.978003    0.324006
      6          8           0       -1.968471   -1.014819   -0.324453
      7          1           0        2.879294   -1.321341    0.636988
      8          1           0        0.406257   -0.663245   -0.429916
      9          1           0        0.247634    0.584256   -1.604699
     10          1           0       -2.845432    0.421093    0.785476
     11          1           0       -0.999444    1.965506    0.194138
     12          1           0       -0.376178    0.890669    1.436014
 ---------------------------------------------------------------------
                    Distance matrix (angstroms):
                    1          2          3          4          5
     1  C    0.000000
     2  C    1.526430   0.000000
     3  C    2.518427   1.514310   0.000000
     4  O    1.357362   2.450237   3.718597   0.000000
     5  O    2.297872   3.317581   4.075654   1.886749   0.000000
     6  O    2.806732   2.417654   1.213774   4.079853   4.029597
     7  H    3.245540   4.240355   5.019148   2.578844   0.987031
     8  H    1.115267   2.104620   2.545333   1.965355   1.798458
     9  H    1.102514   2.236158   2.928943   2.041281   3.043186
    10  H    3.517045   2.229454   1.110996   4.635711   5.072520
    11  H    2.197639   1.099344   2.140162   2.933790   4.210517
    12  H    2.160935   1.100798   2.124676   2.602373   3.227210
                    6          7          8          9         10
     6  O    0.000000
     7  H    4.951681   0.000000
     8  H    2.402928   2.772595   0.000000
     9  H    3.017813   3.947416   1.720911   0.000000
    10  H    2.015651   5.985867   3.636818   3.912367   0.000000
    11  H    3.176522   5.103340   3.045615   2.588217   2.478420
    12  H    3.043933   4.016158   2.551186   3.119129   2.596327
                   11         12
    11  H    0.000000
    12  H    1.756699   0.000000
 Symmetry turned off by external request.
 Stoichiometry    C3H6O3
 Framework group  C1[X(C3H6O3)]
 Deg. of freedom    30
 Full point group                 C1      NOp   1
 Rotational constants (GHZ):           6.5022139           1.9550036           1.6575530
 Standard basis: 6-31+G(d) (6D, 7F)
   126 basis functions,   216 primitive gaussians,   126 cartesian basis functions
    24 alpha electrons       24 beta electrons
       nuclear repulsion energy       231.4048171747 Hartrees.
 NAtoms=   12 NActive=   12 NUniq=   12 SFac= 1.00D+00 NAtFMM=   60 NAOKFM=F Big=F
 Integral buffers will be    131072 words long.
 Raffenetti 2 integral format.
 Two-electron integral symmetry is turned off.
 One-electron integrals computed using PRISM.
 NBasis=   126 RedAO= T EigKep=  9.17D-05  NBF=   126
 NBsUse=   126 1.00D-06 EigRej= -1.00D+00 NBFU=   126
 Initial guess from the checkpoint file:  "/scratch/bell/zhao922/YARP/paper-example/KHP-network/pp_0/IRC-folder/Gau-70347.chk"
 B after Tr=    -0.000124    0.001536   -0.000405
         Rot=    1.000000   -0.000183   -0.000075   -0.000246 Ang=  -0.04 deg.
 ExpMin= 4.38D-02 ExpMax= 5.48D+03 ExpMxC= 8.25D+02 IAcc=3 IRadAn=         5 AccDes= 0.00D+00
 Harris functional with IExCor=  402 and IRadAn=       5 diagonalized for initial guess.
 HarFok:  IExCor=  402 AccDes= 0.00D+00 IRadAn=         5 IDoV= 1 UseB2=F ITyADJ=14
 ICtDFT=  3500011 ScaDFX=  1.000000  1.000000  1.000000  1.000000
 FoFCou: FMM=F IPFlag=           0 FMFlag=      100000 FMFlg1=           0
         NFxFlg=           0 DoJE=T BraDBF=F KetDBF=T FulRan=T
         wScrn=  0.000000 ICntrl=       500 IOpCl=  0 I1Cent=   200000004 NGrid=           0
         NMat0=    1 NMatS0=      1 NMatT0=    0 NMatD0=    1 NMtDS0=    0 NMtDT0=    0
 Symmetry not used in FoFCou.
 Keep R1 ints in memory in canonical form, NReq=47237243.
 Requested convergence on RMS density matrix=1.00D-08 within 128 cycles.
 Requested convergence on MAX density matrix=1.00D-06.
 Requested convergence on             energy=1.00D-06.
 No special actions if energy rises.
 SCF Done:  E(RB3LYP) =  -343.432039544     A.U. after   13 cycles
            NFock= 13  Conv=0.40D-08     -V/T= 2.0094
 DoSCS=F DFT=T ScalE2(SS,OS)=  1.000000  1.000000
 Range of M.O.s used for correlation:     1   126
 NBasis=   126 NAE=    24 NBE=    24 NFC=     0 NFV=     0
 NROrb=    126 NOA=    24 NOB=    24 NVA=   102 NVB=   102

 **** Warning!!: The largest alpha MO coefficient is  0.39835272D+02

 Symmetrizing basis deriv contribution to polar:
 IMax=3 JMax=2 DiffMx= 0.00D+00
 G2DrvN: will do    13 centers at a time, making    1 passes.
 Calling FoFCou, ICntrl=  3107 FMM=F I1Cent=   0 AccDes= 0.00D+00.
 End of G2Drv F.D. properties file   721 does not exist.
 End of G2Drv F.D. properties file   722 does not exist.
 End of G2Drv F.D. properties file   788 does not exist.
          IDoAtm=111111111111
          Differentiating once with respect to nuclear coordinates.
 Keep R1 ints in memory in canonical form, NReq=47193265.
          There are    39 degrees of freedom in the 1st order CPHF.  IDoFFX=6 NUNeed=     0.
     33 vectors produced by pass  0 Test12= 6.28D-15 2.56D-09 XBig12= 1.96D-01 2.57D-01.
 AX will form    33 AO Fock derivatives at one time.
     33 vectors produced by pass  1 Test12= 6.28D-15 2.56D-09 XBig12= 1.74D-01 1.31D-01.
     33 vectors produced by pass  2 Test12= 6.28D-15 2.56D-09 XBig12= 2.28D-03 9.53D-03.
     33 vectors produced by pass  3 Test12= 6.28D-15 2.56D-09 XBig12= 7.37D-06 3.26D-04.
     33 vectors produced by pass  4 Test12= 6.28D-15 2.56D-09 XBig12= 1.22D-08 1.65D-05.
     28 vectors produced by pass  5 Test12= 6.28D-15 2.56D-09 XBig12= 1.22D-11 5.30D-07.
      4 vectors produced by pass  6 Test12= 6.28D-15 2.56D-09 XBig12= 1.01D-14 1.32D-08.
 InvSVY:  IOpt=1 It=  1 EMax= 1.78D-15
 Solved reduced A of dimension   197 with    33 vectors.
 End of Minotr F.D. properties file   721 does not exist.
 End of Minotr F.D. properties file   722 does not exist.
 End of Minotr F.D. properties file   788 does not exist.
 Calling FoFJK, ICntrl=    100127 FMM=F ISym2X=0 I1Cent= 0 IOpClX= 0 NMat=1 NMatS=1 NMatT=0.
 -------------------------------------------------------------------
 Center     Atomic                   Forces (Hartrees/Bohr)
 Number     Number              X              Y              Z
 -------------------------------------------------------------------
      1        6          -0.014882784   -0.007247447   -0.007454983
      2        6          -0.000867010    0.005445743   -0.000802649
      3        6          -0.000572897    0.000900131    0.000424161
      4        8           0.017350333   -0.043269206    0.015766617
      5        8           0.001853972    0.022019896   -0.002779004
      6        8          -0.000608277    0.000895708    0.000407828
      7        1           0.004352964    0.013795173   -0.000968424
      8        1          -0.006313259    0.000707593   -0.005625738
      9        1           0.000141652    0.006667017    0.000314180
     10        1          -0.000041126   -0.000127325    0.000176359
     11        1          -0.000514403    0.000427795    0.000662580
     12        1           0.000100832   -0.000215077   -0.000120927
 -------------------------------------------------------------------
 Cartesian Forces:  Max     0.043269206 RMS     0.010012441
 IRC-IRC-IRC-IRC-IRC-IRC-IRC-IRC-IRC-IRC-IRC-IRC-IRC-IRC-IRC-IRC-IRC-IRC
 Pt  6 Step number   1 out of a maximum of 100
 Modified Bulirsch-Stoer Extrapolation Cycles:
    EPS =    0.000010000000000
      PEZero:  N= 2 I= 1 D=  8.40D-04 Err=  4.76D-05
      PEZero:  N= 3 I= 2 D=  8.40D-04 Err=  3.17D-05
      PEZero:  N= 3 I= 1 D=  1.68D-03 Err=  9.68D-08
 Maximum DWI energy   std dev =  0.000002559 at pt    27
 Maximum DWI gradient std dev =  0.008024690 at pt    47
 CORRECTOR INTEGRATION CONVERGENCE:
   Recorrection delta-x convergence threshold:    0.010000
   Delta-x Convergence Met
 Point Number:   6          Path Number:   1
   CHANGE IN THE REACTION COORDINATE =    0.16122
   NET REACTION COORDINATE UP TO THIS POINT =    0.96686
  # OF POINTS ALONG THE PATH =   6
  # OF STEPS =   1

 Calculating another point on the path.
 IRC-IRC-IRC-IRC-IRC-IRC-IRC-IRC-IRC-IRC-IRC-IRC-IRC-IRC-IRC-IRC-IRC-IRC
                          Input orientation:                          
 ---------------------------------------------------------------------
 Center     Atomic      Atomic             Coordinates (Angstroms)
 Number     Number       Type             X           Y           Z
 ---------------------------------------------------------------------
      1          6           0        0.414105    0.445870   -0.526389
      2          6           0       -0.710177    0.924360    0.387277
      3          6           0       -1.937071    0.043345    0.269948
      4          8           0        1.678971    0.803569   -0.159971
      5          8           0        2.008753   -0.972574    0.323279
      6          8           0       -1.968622   -1.014599   -0.324353
      7          1           0        2.895890   -1.271928    0.633735
      8          1           0        0.384792   -0.660643   -0.450219
      9          1           0        0.248203    0.608488   -1.603669
     10          1           0       -2.845609    0.420625    0.786148
     11          1           0       -1.001222    1.967032    0.196493
     12          1           0       -0.375793    0.889893    1.435574
 ---------------------------------------------------------------------
                    Distance matrix (angstroms):
                    1          2          3          4          5
     1  C    0.000000
     2  C    1.525696   0.000000
     3  C    2.514797   1.514999   0.000000
     4  O    1.364587   2.453996   3.720017   0.000000
     5  O    2.297133   3.315876   4.074857   1.870018   0.000000
     6  O    2.801995   2.418608   1.213851   4.078932   4.029976
     7  H    3.233571   4.229438   5.021931   2.533485   0.986412
     8  H    1.109519   2.100617   2.530867   1.975615   1.825609
     9  H    1.102043   2.232069   2.933470   2.041915   3.051626
    10  H    3.514132   2.230004   1.110966   4.638276   5.071497
    11  H    2.199919   1.099213   2.140509   2.943492   4.209193
    12  H    2.161109   1.100875   2.124362   2.602935   3.223669
                    6          7          8          9         10
     6  O    0.000000
     7  H    4.964638   0.000000
     8  H    2.383210   2.802542   0.000000
     9  H    3.030738   3.943626   1.720406   0.000000
    10  H    2.015487   5.987719   3.623981   3.913846   0.000000
    11  H    3.177620   5.086209   3.040386   2.578234   2.478070
    12  H    3.043277   4.002540   2.557121   3.115374   2.596528
                   11         12
    11  H    0.000000
    12  H    1.756903   0.000000
 Symmetry turned off by external request.
 Stoichiometry    C3H6O3
 Framework group  C1[X(C3H6O3)]
 Deg. of freedom    30
 Full point group                 C1      NOp   1
 Rotational constants (GHZ):           6.5459910           1.9527045           1.6588223
 Standard basis: 6-31+G(d) (6D, 7F)
   126 basis functions,   216 primitive gaussians,   126 cartesian basis functions
    24 alpha electrons       24 beta electrons
       nuclear repulsion energy       231.4940565169 Hartrees.
 NAtoms=   12 NActive=   12 NUniq=   12 SFac= 1.00D+00 NAtFMM=   60 NAOKFM=F Big=F
 Integral buffers will be    131072 words long.
 Raffenetti 2 integral format.
 Two-electron integral symmetry is turned off.
 One-electron integrals computed using PRISM.
 NBasis=   126 RedAO= T EigKep=  9.16D-05  NBF=   126
 NBsUse=   126 1.00D-06 EigRej= -1.00D+00 NBFU=   126
 Initial guess from the checkpoint file:  "/scratch/bell/zhao922/YARP/paper-example/KHP-network/pp_0/IRC-folder/Gau-70347.chk"
 B after Tr=    -0.000099    0.001508   -0.000405
         Rot=    1.000000   -0.000187   -0.000073   -0.000242 Ang=  -0.04 deg.
 ExpMin= 4.38D-02 ExpMax= 5.48D+03 ExpMxC= 8.25D+02 IAcc=3 IRadAn=         5 AccDes= 0.00D+00
 Harris functional with IExCor=  402 and IRadAn=       5 diagonalized for initial guess.
 HarFok:  IExCor=  402 AccDes= 0.00D+00 IRadAn=         5 IDoV= 1 UseB2=F ITyADJ=14
 ICtDFT=  3500011 ScaDFX=  1.000000  1.000000  1.000000  1.000000
 FoFCou: FMM=F IPFlag=           0 FMFlag=      100000 FMFlg1=           0
         NFxFlg=           0 DoJE=T BraDBF=F KetDBF=T FulRan=T
         wScrn=  0.000000 ICntrl=       500 IOpCl=  0 I1Cent=   200000004 NGrid=           0
         NMat0=    1 NMatS0=      1 NMatT0=    0 NMatD0=    1 NMtDS0=    0 NMtDT0=    0
 Symmetry not used in FoFCou.
 Keep R1 ints in memory in canonical form, NReq=47237243.
 Requested convergence on RMS density matrix=1.00D-08 within 128 cycles.
 Requested convergence on MAX density matrix=1.00D-06.
 Requested convergence on             energy=1.00D-06.
 No special actions if energy rises.
 SCF Done:  E(RB3LYP) =  -343.435861907     A.U. after   12 cycles
            NFock= 12  Conv=0.70D-08     -V/T= 2.0095
 DoSCS=F DFT=T ScalE2(SS,OS)=  1.000000  1.000000
 Range of M.O.s used for correlation:     1   126
[...]
  13                    0.39760   0.78336  -1.05563   1.97346   0.26126
  14                    0.40046   0.78267  -1.05198   1.97127   0.25636
  15                    0.40329   0.78193  -1.04820   1.96896   0.25120
  16                    0.40609   0.78117  -1.04428   1.96655   0.24574
  17                    0.40882   0.78040  -1.04017   1.96403   0.23997
  18                    0.41144   0.77967  -1.03583   1.96143   0.23384
  19                    0.41390   0.77902  -1.03119   1.95880   0.22738
  20                    0.41614   0.77848  -1.02621   1.95619   0.22061
  21                    0.41811   0.77809  -1.02082   1.95368   0.21360
  22                    0.41976   0.77789  -1.01504   1.95135   0.20645
  23                    0.42105   0.77786  -1.00893   1.94930   0.19934
  24                    0.42199   0.77801  -1.00262   1.94763   0.19248
  25                    0.42259   0.77830  -0.99636   1.94642   0.18611
  26                    0.42290   0.77870  -0.99047   1.94574   0.18051
  27                    0.42301   0.77918  -0.98532   1.94562   0.17594
  28                    0.42299   0.77969  -0.98127   1.94603   0.17260
  29                    0.42293   0.78018  -0.97856   1.94688   0.17054
  30                    0.42288   0.78061  -0.97713   1.94799   0.16961
  31                    0.42285   0.78097  -0.97673   1.94920   0.16953
  32                    0.42285   0.78126  -0.97706   1.95039   0.17001
  33                    0.42287   0.78149  -0.97781   1.95145   0.17081
  34                    0.42289   0.78166  -0.97870   1.95227   0.17170
  35                    0.42292   0.78179  -0.97960   1.95293   0.17258
  36                    0.42295   0.78192  -0.98050   1.95349   0.17347
  37                    0.42297   0.78205  -0.98146   1.95403   0.17442
  38                    0.42299   0.78219  -0.98252   1.95459   0.17547
  39                    0.42300   0.78235  -0.98372   1.95520   0.17668
  40                    0.42299   0.78254  -0.98512   1.95594   0.17811
  41                    0.42292   0.78278  -0.98680   1.95686   0.17984
  42                    0.42281   0.78305  -0.98866   1.95792   0.18178
  43                    0.42261   0.78340  -0.99079   1.95924   0.18406
  44                    0.42232   0.78382  -0.99304   1.96072   0.18654
  45                    0.42196   0.78430  -0.99529   1.96230   0.18910
  46                    0.42154   0.78486  -0.99745   1.96392   0.19166
  47                    0.42109   0.78548  -0.99943   1.96551   0.19413
  48                    0.42062   0.78615  -1.00121   1.96703   0.19649
  49                    0.42016   0.78687  -1.00276   1.96847   0.19870
  50                    0.41971   0.78763  -1.00408   1.96980   0.20075
  51                    0.41928   0.78842  -1.00516   1.97102   0.20265
  52                    0.41888   0.78925  -1.00601   1.97212   0.20441
  53                    0.41851   0.79011  -1.00666   1.97310   0.20603
  54                    0.41819   0.79100  -1.00710   1.97396   0.20755
  55                    0.41791   0.79192  -1.00735   1.97470   0.20898
  56                    0.41768   0.79287  -1.00743   1.97532   0.21035
  57                    0.41751   0.79386  -1.00734   1.97582   0.21167
  58                    0.41739   0.79490  -1.00708   1.97620   0.21299
  59                    0.41735   0.79602  -1.00665   1.97644   0.21432
  60                    0.41738   0.79723  -1.00603   1.97653   0.21573
  61                    0.41751   0.79858  -1.00519   1.97645   0.21726
  62                    0.41777   0.80014  -1.00408   1.97614   0.21901
  63                    0.41822   0.80203  -1.00262   1.97551   0.22115
  64                    0.41895   0.80447  -1.00065   1.97441   0.22398
  65                    0.42009   0.80784  -0.99799   1.97257   0.22806
  66                    0.42167   0.81258  -0.99456   1.96977   0.23415
  67                    0.42346   0.81896  -0.99048   1.96605   0.24270
  68                    0.42509   0.82698  -0.98571   1.96156   0.25353
  69                    0.42631   0.83627  -0.98022   1.95634   0.26593
  70                    0.42701   0.84618  -0.97409   1.95048   0.27916
  71                    0.42712   0.85615  -0.96746   1.94417   0.29291
  72                    0.42659   0.86589  -0.96039   1.93766   0.30718
  73                    0.42545   0.87534  -0.95288   1.93106   0.32201
  74                    0.42375   0.88449  -0.94496   1.92446   0.33736
  75                    0.42158   0.89340  -0.93670   1.91787   0.35312
  76                    0.41902   0.90211  -0.92812   1.91127   0.36917
  77                    0.41612   0.91069  -0.91928   1.90464   0.38540
  78                    0.41293   0.91919  -0.91021   1.89794   0.40170
  79                    0.40949   0.92769  -0.90095   1.89114   0.41798
  80                    0.40580   0.93623  -0.89152   1.88424   0.43417
  81                    0.40188   0.94488  -0.88198   1.87720   0.45017
                          X12       Y12       Z12
   1                   -0.36349   0.87848   1.44824
   2                   -0.36426   0.87924   1.44728
   3                   -0.36488   0.87988   1.44634
   4                   -0.36536   0.88040   1.44541
   5                   -0.36569   0.88083   1.44451
   6                   -0.36587   0.88118   1.44362
   7                   -0.36591   0.88148   1.44274
   8                   -0.36580   0.88174   1.44188
   9                   -0.36556   0.88200   1.44105
  10                   -0.36520   0.88229   1.44024
  11                   -0.36472   0.88263   1.43946
  12                   -0.36415   0.88307   1.43872
  13                   -0.36351   0.88364   1.43803
  14                   -0.36285   0.88438   1.43741
  15                   -0.36220   0.88532   1.43686
  16                   -0.36162   0.88646   1.43640
  17                   -0.36116   0.88783   1.43605
  18                   -0.36089   0.88940   1.43580
  19                   -0.36088   0.89116   1.43568
  20                   -0.36118   0.89305   1.43569
  21                   -0.36183   0.89501   1.43583
  22                   -0.36286   0.89696   1.43611
  23                   -0.36423   0.89879   1.43649
  24                   -0.36588   0.90041   1.43695
  25                   -0.36772   0.90171   1.43745
  26                   -0.36959   0.90261   1.43794
  27                   -0.37135   0.90308   1.43835
  28                   -0.37288   0.90311   1.43866
  29                   -0.37409   0.90277   1.43884
  30                   -0.37499   0.90217   1.43892
  31                   -0.37564   0.90144   1.43892
  32                   -0.37612   0.90067   1.43887
  33                   -0.37646   0.89991   1.43879
  34                   -0.37669   0.89927   1.43871
  35                   -0.37687   0.89873   1.43863
  36                   -0.37701   0.89824   1.43855
  37                   -0.37713   0.89776   1.43848
  38                   -0.37723   0.89727   1.43840
  39                   -0.37733   0.89675   1.43831
  40                   -0.37739   0.89617   1.43819
  41                   -0.37741   0.89550   1.43803
  42                   -0.37739   0.89477   1.43783
  43                   -0.37728   0.89396   1.43757
  44                   -0.37710   0.89313   1.43723
  45                   -0.37684   0.89229   1.43686
  46                   -0.37653   0.89147   1.43644
  47                   -0.37618   0.89067   1.43601
  48                   -0.37579   0.88989   1.43557
  49                   -0.37538   0.88913   1.43513
  50                   -0.37494   0.88838   1.43469
  51                   -0.37447   0.88762   1.43426
  52                   -0.37397   0.88685   1.43384
  53                   -0.37343   0.88604   1.43343
  54                   -0.37286   0.88519   1.43302
  55                   -0.37223   0.88429   1.43261
  56                   -0.37154   0.88330   1.43221
  57                   -0.37078   0.88222   1.43179
  58                   -0.36992   0.88100   1.43135
  59                   -0.36894   0.87961   1.43088
  60                   -0.36781   0.87800   1.43035
  61                   -0.36645   0.87605   1.42975
  62                   -0.36477   0.87363   1.42902
  63                   -0.36259   0.87045   1.42806
  64                   -0.35959   0.86600   1.42673
  65                   -0.35528   0.85939   1.42476
  66                   -0.34917   0.84958   1.42186
  67                   -0.34137   0.83618   1.41806
  68                   -0.33250   0.81968   1.41380
  69                   -0.32323   0.80117   1.40972
  70                   -0.31402   0.78181   1.40635
  71                   -0.30497   0.76228   1.40392
  72                   -0.29605   0.74274   1.40237
  73                   -0.28717   0.72317   1.40152
  74                   -0.27830   0.70356   1.40118
  75                   -0.26945   0.68392   1.40120
  76                   -0.26060   0.66428   1.40144
  77                   -0.25179   0.64467   1.40182
  78                   -0.24303   0.62510   1.40226
  79                   -0.23433   0.60561   1.40271
  80                   -0.22571   0.58621   1.40312
  81                   -0.21720   0.56695   1.40348
 --------------------------------------------------------------------------
 
 Total number of points:                   80
 Total number of gradient calculations:    81
 Total number of Hessian calculations:     81
 IRC-IRC-IRC-IRC-IRC-IRC-IRC-IRC-IRC-IRC-IRC-IRC-IRC-IRC-IRC-IRC-IRC-IRC
                          Input orientation:                          
 ---------------------------------------------------------------------
 Center     Atomic      Atomic             Coordinates (Angstroms)
 Number     Number       Type             X           Y           Z
 ---------------------------------------------------------------------
      1          6           0        0.414196    0.726293   -0.545293
      2          6           0       -0.743015    0.952044    0.418305
      3          6           0       -1.930797    0.028459    0.273359
      4          8           0        1.522883    1.162856   -0.342155
      5          8           0        2.090158   -1.388698    0.457203
      6          8           0       -1.923958   -1.019764   -0.339619
      7          1           0        2.690579   -2.028303    0.870923
      8          1           0        1.533203   -1.918287   -0.136222
      9          1           0        0.179932    0.160210   -1.469149
     10          1           0       -2.854542    0.361033    0.794378
     11          1           0       -1.087798    1.992997    0.313112
     12          1           0       -0.363489    0.878474    1.448239
 ---------------------------------------------------------------------
                    Distance matrix (angstroms):
                    1          2          3          4          5
     1  C    0.000000
     2  C    1.522702   0.000000
     3  C    2.579953   1.511570   0.000000
     4  O    1.208734   2.399382   3.686952   0.000000
     5  O    2.878721   3.675249   4.267343   2.733350   0.000000
     6  O    2.925403   2.420145   1.214314   4.079773   4.109035
     7  H    3.843876   4.569125   5.093572   3.608126   0.969930
     8  H    2.900572   3.705060   3.994605   3.088035   0.970988
     9  H    1.108530   2.245287   2.740232   2.019636   3.123926
    10  H    3.551448   2.224695   1.111472   4.593090   5.255978
    11  H    2.144151   1.101601   2.138139   2.816764   4.642847
    12  H    2.145255   1.100098   2.135257   2.616253   3.484624
                    6          7          8          9         10
     6  O    0.000000
     7  H    4.876117   0.000000
     8  H    3.577803   1.538169   0.000000
     9  H    2.663556   4.070488   2.815704   0.000000
    10  H    2.014580   6.038473   5.031264   3.791031   0.000000
    11  H    3.194049   5.546002   4.729661   2.853542   2.452816
    12  H    3.038882   4.255582   3.732268   3.053254   2.626904
                   11         12
    11  H    0.000000
    12  H    1.747941   0.000000
 Symmetry turned off by external request.
 Stoichiometry    C3H6O3
 Framework group  C1[X(C3H6O3)]
 Deg. of freedom    30
 Full point group                 C1      NOp   1
 Rotational constants (GHZ):           4.2698441           1.9658177           1.4893614

 **********************************************************************

            Population analysis using the SCF Density.

 **********************************************************************

 Alpha  occ. eigenvalues --  -19.18343 -19.16517 -19.16365 -10.30814 -10.29062
 Alpha  occ. eigenvalues --  -10.22499  -1.07631  -1.05846  -1.01909  -0.79522
 Alpha  occ. eigenvalues --   -0.63949  -0.57793  -0.53970  -0.50766  -0.48745
 Alpha  occ. eigenvalues --   -0.47441  -0.43747  -0.43391  -0.41027  -0.39150
 Alpha  occ. eigenvalues --   -0.36226  -0.31653  -0.29340  -0.26001
 Alpha virt. eigenvalues --   -0.05592  -0.04292   0.00169   0.00571   0.02933
 Alpha virt. eigenvalues --    0.03396   0.05543   0.06391   0.07087   0.08153
 Alpha virt. eigenvalues --    0.09106   0.11343   0.11726   0.13063   0.14800
 Alpha virt. eigenvalues --    0.16112   0.17969   0.19161   0.20875   0.21728
 Alpha virt. eigenvalues --    0.23037   0.23051   0.24655   0.25998   0.26168
 Alpha virt. eigenvalues --    0.26606   0.28320   0.29424   0.30580   0.31634
 Alpha virt. eigenvalues --    0.32027   0.34081   0.37610   0.37842   0.44319
 Alpha virt. eigenvalues --    0.47339   0.63472   0.65236   0.67427   0.69751
 Alpha virt. eigenvalues --    0.71090   0.73674   0.77717   0.80188   0.88572
 Alpha virt. eigenvalues --    0.92356   0.94639   0.99748   1.02738   1.05548
 Alpha virt. eigenvalues --    1.06283   1.08035   1.10662   1.13942   1.16115
 Alpha virt. eigenvalues --    1.17440   1.21584   1.25348   1.26763   1.29631
 Alpha virt. eigenvalues --    1.30004   1.31334   1.33281   1.43181   1.50388
 Alpha virt. eigenvalues --    1.50781   1.53498   1.57694   1.63548   1.68996
 Alpha virt. eigenvalues --    1.69948   1.73218   1.74782   1.77531   1.78024
 Alpha virt. eigenvalues --    1.80059   1.82417   1.83585   1.92508   2.01302
 Alpha virt. eigenvalues --    2.03379   2.06816   2.19575   2.25393   2.28629
 Alpha virt. eigenvalues --    2.30447   2.41989   2.46699   2.56439   2.59505
 Alpha virt. eigenvalues --    2.61017   2.66455   2.82954   2.95359   3.05129
 Alpha virt. eigenvalues --    3.09766   3.96225   4.11168   4.16158   4.24586
 Alpha virt. eigenvalues --    4.31703   4.50812
          Condensed to atoms (all electrons):
               1          2          3          4          5          6
     1  C    5.184780  -0.364383   0.082062   0.508985   0.095191   0.092106
     2  C   -0.364383   7.165375  -0.316213  -0.220516  -0.051078  -0.212653
     3  C    0.082062  -0.316213   5.187558   0.049199   0.004663   0.467035
     4  O    0.508985  -0.220516   0.049199   8.074614  -0.085387   0.001141
     5  O    0.095191  -0.051078   0.004663  -0.085387   8.527052   0.000467
     6  O    0.092106  -0.212653   0.467035   0.001141   0.000467   8.083889
     7  H   -0.004531   0.001426   0.000156   0.004846   0.219241   0.000045
     8  H   -0.003374  -0.005869   0.003200   0.005024   0.228647   0.000948
     9  H    0.384502  -0.162241   0.057738  -0.056604  -0.002936  -0.008230
    10  H    0.035341  -0.154274   0.389474  -0.000443  -0.000008  -0.059869
    11  H   -0.003337   0.339892  -0.034914  -0.005098   0.000005   0.003424
    12  H   -0.025528   0.343292  -0.007438  -0.000716   0.000691  -0.001900
               7          8          9         10         11         12
     1  C   -0.004531  -0.003374   0.384502   0.035341  -0.003337  -0.025528
     2  C    0.001426  -0.005869  -0.162241  -0.154274   0.339892   0.343292
     3  C    0.000156   0.003200   0.057738   0.389474  -0.034914  -0.007438
     4  O    0.004846   0.005024  -0.056604  -0.000443  -0.005098  -0.000716
     5  O    0.219241   0.228647  -0.002936  -0.000008   0.000005   0.000691
     6  O    0.000045   0.000948  -0.008230  -0.059869   0.003424  -0.001900
     7  H    0.307547  -0.018970   0.000044   0.000000   0.000000  -0.000007
     8  H   -0.018970   0.331337   0.001162   0.000000   0.000004   0.000041
     9  H    0.000044   0.001162   0.604653  -0.000380   0.001910   0.002735
    10  H    0.000000   0.000000  -0.000380   0.621459   0.002054   0.001485
    11  H    0.000000   0.000004   0.001910   0.002054   0.474269  -0.021763
    12  H   -0.000007   0.000041   0.002735   0.001485  -0.021763   0.438431
 Mulliken charges:
               1
     1  C    0.018184
     2  C   -0.362757
     3  C    0.117478
     4  O   -0.275043
     5  O   -0.936549
     6  O   -0.366402
     7  H    0.490201
     8  H    0.457850
     9  H    0.177647
    10  H    0.165160
    11  H    0.243554
    12  H    0.270678
 Sum of Mulliken charges =  -0.00000
 Mulliken charges with hydrogens summed into heavy atoms:
               1
     1  C    0.195831
     2  C    0.151474
     3  C    0.282638
     4  O   -0.275043
     5  O    0.011501
     6  O   -0.366402
 APT charges:
               1
     1  C   -0.534061
     2  C   -0.541077
     3  C   -0.364702
     4  O   -0.094588
     5  O   -1.364639
     6  O   -0.336266
     7  H    0.909160
     8  H    0.456893
     9  H    0.353344
    10  H    0.554276
    11  H    0.538820
    12  H    0.422839
 Sum of APT charges =  -0.00000
 APT charges with hydrogens summed into heavy atoms:
               1
     1  C   -0.180716
     2  C    0.420581
     3  C    0.189574
     4  O   -0.094588
     5  O    0.001414
     6  O   -0.336266
 Electronic spatial extent (au):  <R**2>=            783.2401
 Charge=             -0.0000 electrons
 Dipole moment (field-independent basis, Debye):
    X=             -1.7590    Y=             -0.4315    Z=              1.0336  Tot=              2.0853
 Quadrupole moment (field-independent basis, Debye-Ang):
   XX=            -39.0783   YY=            -32.1684   ZZ=            -34.3025
   XY=            -12.9562   XZ=             -0.8556   YZ=             -0.7885
 Traceless Quadrupole moment (field-independent basis, Debye-Ang):
   XX=             -3.8952   YY=              3.0147   ZZ=              0.8806
   XY=            -12.9562   XZ=             -0.8556   YZ=             -0.7885
 Octapole moment (field-independent basis, Debye-Ang**2):
  XXX=              7.1737  YYY=            -19.0127  ZZZ=             -1.4934  XYY=             16.6976
  XXY=            -11.0645  XXZ=             12.4044  XZZ=              3.3557  YZZ=             -2.3060
  YYZ=              2.5461  XYZ=             -1.5177
 Hexadecapole moment (field-independent basis, Debye-Ang**3):
 XXXX=           -573.3591 YYYY=           -234.0556 ZZZZ=            -87.5125 XXXY=            -52.0909
 XXXZ=             16.8540 YYYX=            -36.5265 YYYZ=              2.2649 ZZZX=              3.5190
 ZZZY=              9.0021 XXYY=           -121.2452 XXZZ=           -108.4426 YYZZ=            -58.1127
 XXYZ=            -14.3693 YYXZ=             10.1014 ZZXY=             -1.0190
 N-N= 2.216131924290D+02 E-N=-1.248314009368D+03  KE= 3.404229460027D+02
  Exact polarizability:   0.000   0.000   0.000   0.000   0.000   0.000
 Approx polarizability:  72.242   6.495  67.309   1.575  13.036  58.198

 This type of calculation cannot be archived.


 ... A MOLECULAR SYSTEM ... (PASSES) ... FROM ONE STATE OF EQUILIBRIUM 
 TO ANOTHER ... BY MEANS OF ALL POSSIBLE INTERMEDIATE PATHS, 
 BUT THE PATH MOST ECONOMICAL OF ENERGY WILL BE THE MORE OFTEN TRAVELED.

                      -- HENRY EYRING, 1945
 Job cpu time:       0 days  5 hours 55 minutes 45.0 seconds.
 Elapsed time:       0 days  0 hours 22 minutes 43.9 seconds.
 File lengths (MBytes):  RWF=     28 Int=      0 D2E=      0 Chk=      4 Scr=      1
 Normal termination of Gaussian 16 at Wed Dec 23 22:39:14 2020.
