 Entering Gaussian System, Link 0=g16
 Initial command:
 /apps/cent7/gaussian/g16-B.01/g16-haswell/g16/l1.exe "/scratch/bell/zhao922/YARP/paper-example/KHP-network/pp_0/IRC-folder/Gau-37797.inp" -scrdir="/scratch/bell/zhao922/YARP/paper-example/KHP-network/pp_0/IRC-folder/"
 Entering Link 1 = /apps/cent7/gaussian/g16-B.01/g16-haswell/g16/l1.exe PID=     37799.
  
 Copyright (c) 1988-2017, Gaussian, Inc.  All Rights Reserved.
  
 This is part of the Gaussian(R) 16 program.  It is based on
 the Gaussian(R) 09 system (copyright 2009, Gaussian, Inc.),
 the Gaussian(R) 03 system (copyright 2003, Gaussian, Inc.),
 the Gaussian(R) 98 system (copyright 1998, Gaussian, Inc.),
 the Gaussian(R) 94 system (copyright 1995, Gaussian, Inc.),
 the Gaussian 92(TM) system (copyright 1992, Gaussian, Inc.),
 the Gaussian 90(TM) system (copyright 1990, Gaussian, Inc.),
 the Gaussian 88(TM) system (copyright 1988, Gaussian, Inc.),
 the Gaussian 86(TM) system (copyright 1986, Carnegie Mellon
 University), and the Gaussian 82(TM) system (copyright 1983,
 Carnegie Mellon University). Gaussian is a federally registered
 trademark of Gaussian, Inc.
  
 This software contains proprietary and confidential information,
 including trade secrets, belonging to Gaussian, Inc.
  
 This software is provided under written license and may be
 used, copied, transmitted, or stored only in accord with that
 written license.
  
 The following legend is applicable only to US Government
 contracts under FAR:
  
                    RESTRICTED RIGHTS LEGEND
  
 Use, reproduction and disclosure by the US Government is
 subject to restrictions as set forth in subparagraphs (a)
 and (c) of the Commercial Computer Software - Restricted
 Rights clause in FAR 52.227-19.
  
 Gaussian, Inc.
 340 Quinnipiac St., Bldg. 40, Wallingford CT 06492
  
  
 ---------------------------------------------------------------
 Warning -- This program may not be used in any manner that
 competes with the business of Gaussian, Inc. or will provide
 assistance to any competitor of Gaussian, Inc.  The licensee
 of this program is prohibited from giving any competitor of
 Gaussian, Inc. access to this program.  By using this program,
 the user acknowledges that Gaussian, Inc. is engaged in the
 business of creating and licensing software in the field of
 computational chemistry and represents and warrants to the
 licensee that it is not a competitor of Gaussian, Inc. and that
 it will not use this program in any manner prohibited above.
 ---------------------------------------------------------------
  

 Cite this work as:
 Gaussian 16, Revision B.01,
 M. J. Frisch, G. W. Trucks, H. B. Schlegel, G. E. Scuseria, 
 M. A. Robb, J. R. Cheeseman, G. Scalmani, V. Barone, 
 G. A. Petersson, H. Nakatsuji, X. Li, M. Caricato, A. V. Marenich, 
 J. Bloino, B. G. Janesko, R. Gomperts, B. Mennucci, H. P. Hratchian, 
 J. V. Ortiz, A. F. Izmaylov, J. L. Sonnenberg, D. Williams-Young, 
 F. Ding, F. Lipparini, F. Egidi, J. Goings, B. Peng, A. Petrone, 
 T. Henderson, D. Ranasinghe, V. G. Zakrzewski, J. Gao, N. Rega, 
 G. Zheng, W. Liang, M. Hada, M. Ehara, K. Toyota, R. Fukuda, 
 J. Hasegawa, M. Ishida, T. Nakajima, Y. Honda, O. Kitao, H. Nakai, 
 T. Vreven, K. Throssell, J. A. Montgomery, Jr., J. E. Peralta, 
 F. Ogliaro, M. J. Bearpark, J. J. Heyd, E. N. Brothers, K. N. Kudin, 
 V. N. Staroverov, T. A. Keith, R. Kobayashi, J. Normand, 
 K. Raghavachari, A. P. Rendell, J. C. Burant, S. S. Iyengar, 
 J. Tomasi, M. Cossi, J. M. Millam, M. Klene, C. Adamo, R. Cammi, 
 J. W. Ochterski, R. L. Martin, K. Morokuma, O. Farkas, 
 J. B. Foresman, and D. J. Fox, Gaussian, Inc., Wallingford CT, 2016.
 
 ******************************************
 Gaussian 16:  ES64L-G16RevB.01 20-Dec-2017
                23-Dec-2020 
 ******************************************
 %NProcShared=16
 Will use up to   16 processors via shared memory.
 %Mem=6GB
 ----------------------------------------------------------------------
 # B3LYP/6-31+G* IRC=(CALCALL, maxpoints=40, StepSize=15, maxcyc=100, R
 eport=Cartesians)
 ----------------------------------------------------------------------
 1/6=100,10=4,18=10,26=3,38=1,39=15,42=40,44=3,71=1,129=10,172=1/1,23;
 2/12=2,17=6,18=5,29=1,40=1/2;
 3/5=1,6=6,7=11,11=2,25=1,30=1,71=2,74=-5,140=1/1,2,3;
 4//1;
 5/5=2,38=5/2;
 8/6=4,10=90,11=11/1;
 11/6=1,8=1,9=11,15=111,16=1/1,2,10;
 10/6=1,13=1/2;
 6/7=2,8=2,9=2,10=2,18=1,28=1/1;
 7/10=1,25=1/1,2,3,16;
 1/6=100,10=4,18=10,26=3,39=15,42=40,44=3,71=1,129=10/23(2);
 2/29=1/2;
 99/5=20/99;
 2/29=1/2;
 3/5=1,6=6,7=11,11=2,25=1,30=1,71=2,74=-5,140=1/1,2,3;
 4/5=5,16=3,69=1/1;
 5/5=2,38=5/2;
 8/6=4,10=90,11=11/1;
 11/6=1,8=1,9=11,15=111,16=1/1,2,10;
 10/6=1,13=1/2;
 7/10=1,25=1/1,2,3,16;
 1/6=100,10=4,18=10,26=3,39=15,42=40,44=3,71=1,129=10/23(-8);
 2/29=1/2;
 6/7=2,8=2,9=2,10=2,18=1,19=2,28=1/1;
 99/5=20/99;
 -----------
 pp_13_2 IRC
 -----------
 Symbolic Z-matrix:
 Charge =  0 Multiplicity = 1
 C                    -0.36267   0.03107   0.29104 
 C                     0.8037    0.87728   0.05682 
 C                     2.05583   0.21886  -0.16098 
 O                    -1.48907   0.41694  -0.36486 
 O                    -2.58542  -0.49744   0.03284 
 O                     2.25263  -0.9995   -0.06312 
 H                    -2.991    -0.63268  -0.84433 
 H                    -0.12863  -1.03458   0.33316 
 H                    -0.84004   0.0968    1.63393 
 H                     2.89513   0.89314  -0.42704 
 H                    -0.01229   0.60766   1.40544 
 H                     0.67063   1.94632  -0.0613 
 
 IRC-IRC-IRC-IRC-IRC-IRC-IRC-IRC-IRC-IRC-IRC-IRC-IRC-IRC-IRC-IRC-IRC-IRC
 ------------------------------------------------------------------------
 INPUT DATA FOR L123
 ------------------------------------------------------------------------
 GENERAL PARAMETERS:
 Follow reaction path in both directions.
 Maximum points per path      =  40
 Step size                    =   0.150 bohr
 Integration scheme           = HPC                                 
    Redo corrector integration= Yes                                 
    DWI Weight Power          =  2
    DWI will use Hessian update vectors when possible.
    Max correction cycles     = 100
 Initial Hessian              = CalcFC
 Hessian evaluation           = Analytic at all predictor steps
                              = Update at all corrector steps
 Hessian updating method      = Bofill                              
 ------------------------------------------------------------------------
 IRC-IRC-IRC-IRC-IRC-IRC-IRC-IRC-IRC-IRC-IRC-IRC-IRC-IRC-IRC-IRC-IRC-IRC
                          Input orientation:                          
 ---------------------------------------------------------------------
 Center     Atomic      Atomic             Coordinates (Angstroms)
 Number     Number       Type             X           Y           Z
 ---------------------------------------------------------------------
      1          6           0       -0.362672    0.031073    0.291039
      2          6           0        0.803699    0.877284    0.056819
      3          6           0        2.055826    0.218863   -0.160976
      4          8           0       -1.489070    0.416944   -0.364858
      5          8           0       -2.585419   -0.497441    0.032836
      6          8           0        2.252625   -0.999503   -0.063123
      7          1           0       -2.991001   -0.632681   -0.844330
      8          1           0       -0.128634   -1.034575    0.333155
      9          1           0       -0.840041    0.096801    1.633933
     10          1           0        2.895127    0.893144   -0.427039
     11          1           0       -0.012287    0.607662    1.405441
     12          1           0        0.670627    1.946324   -0.061303
 ---------------------------------------------------------------------
                    Distance matrix (angstroms):
                    1          2          3          4          5
     1  C    0.000000
     2  C    1.459916   0.000000
     3  C    2.467532   1.431354   0.000000
     4  O    1.359364   2.376239   3.556275   0.000000
     5  O    2.299261   3.657399   4.700193   1.481972   0.000000
     6  O    2.833248   2.374048   1.238031   4.012187   4.864971
     7  H    2.939004   4.182321   5.163580   1.894044   0.975811
     8  H    1.091858   2.144950   2.566542   2.108297   2.532686
     9  H    1.426733   2.407971   3.409200   2.125769   2.441921
    10  H    3.445585   2.146728   1.108995   4.410421   5.672883
    11  H    1.302734   1.599159   2.623341   2.313270   3.118703
    12  H    2.204549   1.083747   2.216491   2.663727   4.072184
                    6          7          8          9         10
     6  O    0.000000
     7  H    5.314175   0.000000
     8  H    2.414262   3.121079   0.000000
     9  H    3.694112   3.361631   1.864976   0.000000
    10  H    2.031590   6.094980   3.665669   4.339729   0.000000
    11  H    3.141574   3.933530   1.964759   0.999182   3.448556
    12  H    3.343743   4.546638   3.111298   2.928597   2.488243
                   11         12
    11  H    0.000000
    12  H    2.099935   0.000000
 Symmetry turned off by external request.
 Stoichiometry    C3H6O3
 Framework group  C1[X(C3H6O3)]
 Deg. of freedom    30
 Full point group                 C1      NOp   1
 Rotational constants (GHZ):          10.5089094           1.6220225           1.4810080
 Standard basis: 6-31+G(d) (6D, 7F)
   126 basis functions,   216 primitive gaussians,   126 cartesian basis functions
    24 alpha electrons       24 beta electrons
       nuclear repulsion energy       234.5598019806 Hartrees.
 NAtoms=   12 NActive=   12 NUniq=   12 SFac= 1.00D+00 NAtFMM=   60 NAOKFM=F Big=F
 Integral buffers will be    131072 words long.
 Raffenetti 2 integral format.
 Two-electron integral symmetry is turned off.
 One-electron integrals computed using PRISM.
 NBasis=   126 RedAO= T EigKep=  8.79D-05  NBF=   126
 NBsUse=   126 1.00D-06 EigRej= -1.00D+00 NBFU=   126
 ExpMin= 4.38D-02 ExpMax= 5.48D+03 ExpMxC= 8.25D+02 IAcc=3 IRadAn=         5 AccDes= 0.00D+00
 Harris functional with IExCor=  402 and IRadAn=       5 diagonalized for initial guess.
 HarFok:  IExCor=  402 AccDes= 0.00D+00 IRadAn=         5 IDoV= 1 UseB2=F ITyADJ=14
 ICtDFT=  3500011 ScaDFX=  1.000000  1.000000  1.000000  1.000000
 FoFCou: FMM=F IPFlag=           0 FMFlag=      100000 FMFlg1=           0
         NFxFlg=           0 DoJE=T BraDBF=F KetDBF=T FulRan=T
         wScrn=  0.000000 ICntrl=       500 IOpCl=  0 I1Cent=   200000004 NGrid=           0
         NMat0=    1 NMatS0=      1 NMatT0=    0 NMatD0=    1 NMtDS0=    0 NMtDT0=    0
 Symmetry not used in FoFCou.
 Keep R1 ints in memory in canonical form, NReq=47237219.
 Requested convergence on RMS density matrix=1.00D-08 within 128 cycles.
 Requested convergence on MAX density matrix=1.00D-06.
 Requested convergence on             energy=1.00D-06.
 No special actions if energy rises.
 SCF Done:  E(RB3LYP) =  -343.340688588     A.U. after   16 cycles
            NFock= 16  Conv=0.26D-08     -V/T= 2.0091
 DoSCS=F DFT=T ScalE2(SS,OS)=  1.000000  1.000000
 Range of M.O.s used for correlation:     1   126
 NBasis=   126 NAE=    24 NBE=    24 NFC=     0 NFV=     0
 NROrb=    126 NOA=    24 NOB=    24 NVA=   102 NVB=   102

 **** Warning!!: The largest alpha MO coefficient is  0.32300948D+02

 Symmetrizing basis deriv contribution to polar:
 IMax=3 JMax=2 DiffMx= 0.00D+00
 G2DrvN: will do    13 centers at a time, making    1 passes.
 Calling FoFCou, ICntrl=  3107 FMM=F I1Cent=   0 AccDes= 0.00D+00.
 End of G2Drv F.D. properties file   721 does not exist.
 End of G2Drv F.D. properties file   722 does not exist.
 End of G2Drv F.D. properties file   788 does not exist.
          IDoAtm=111111111111
          Differentiating once with respect to nuclear coordinates.
 Keep R1 ints in memory in canonical form, NReq=47193241.
          There are    39 degrees of freedom in the 1st order CPHF.  IDoFFX=6 NUNeed=     0.
     33 vectors produced by pass  0 Test12= 6.28D-15 2.56D-09 XBig12= 2.37D-01 2.43D-01.
 AX will form    33 AO Fock derivatives at one time.
     33 vectors produced by pass  1 Test12= 6.28D-15 2.56D-09 XBig12= 4.83D-02 5.42D-02.
     33 vectors produced by pass  2 Test12= 6.28D-15 2.56D-09 XBig12= 1.11D-03 6.40D-03.
     33 vectors produced by pass  3 Test12= 6.28D-15 2.56D-09 XBig12= 3.95D-06 3.40D-04.
     33 vectors produced by pass  4 Test12= 6.28D-15 2.56D-09 XBig12= 7.17D-09 1.30D-05.
     30 vectors produced by pass  5 Test12= 6.28D-15 2.56D-09 XBig12= 9.60D-12 4.13D-07.
      5 vectors produced by pass  6 Test12= 6.28D-15 2.56D-09 XBig12= 8.33D-15 1.06D-08.
 InvSVY:  IOpt=1 It=  1 EMax= 1.67D-15
 Solved reduced A of dimension   200 with    33 vectors.
 End of Minotr F.D. properties file   721 does not exist.
 End of Minotr F.D. properties file   722 does not exist.
 End of Minotr F.D. properties file   788 does not exist.

 **********************************************************************

            Population analysis using the SCF Density.

 **********************************************************************

 Alpha  occ. eigenvalues --  -19.28313 -19.25913 -19.12152 -10.35085 -10.26058
 Alpha  occ. eigenvalues --  -10.19911  -1.18017  -1.01422  -0.99513  -0.82876
 Alpha  occ. eigenvalues --   -0.68925  -0.60542  -0.58932  -0.55797  -0.52918
 Alpha  occ. eigenvalues --   -0.47598  -0.44435  -0.43243  -0.39829  -0.39487
 Alpha  occ. eigenvalues --   -0.37005  -0.32647  -0.24456  -0.22972
 Alpha virt. eigenvalues --   -0.06608  -0.04410  -0.02055   0.00813   0.01959
 Alpha virt. eigenvalues --    0.03714   0.05232   0.05865   0.07025   0.07539
 Alpha virt. eigenvalues --    0.08934   0.10659   0.11308   0.12052   0.12986
 Alpha virt. eigenvalues --    0.13884   0.16293   0.17627   0.18870   0.20180
 Alpha virt. eigenvalues --    0.21969   0.23143   0.23414   0.24093   0.25233
 Alpha virt. eigenvalues --    0.26318   0.26802   0.27388   0.28417   0.31717
 Alpha virt. eigenvalues --    0.32721   0.33989   0.34899   0.38221   0.41572
 Alpha virt. eigenvalues --    0.48728   0.62811   0.67380   0.67710   0.69334
 Alpha virt. eigenvalues --    0.72445   0.74729   0.79277   0.80534   0.83830
 Alpha virt. eigenvalues --    0.89077   0.92943   0.94857   0.96841   0.99112
 Alpha virt. eigenvalues --    1.03217   1.07856   1.11833   1.12445   1.17467
 Alpha virt. eigenvalues --    1.20001   1.22425   1.24447   1.25883   1.29540
 Alpha virt. eigenvalues --    1.30627   1.33066   1.35313   1.40795   1.46501
 Alpha virt. eigenvalues --    1.49174   1.53750   1.54457   1.57842   1.62197
 Alpha virt. eigenvalues --    1.65731   1.75934   1.78564   1.79501   1.83045
 Alpha virt. eigenvalues --    1.85589   1.88382   1.94077   1.99333   2.00883
 Alpha virt. eigenvalues --    2.07701   2.14955   2.22700   2.25812   2.30522
 Alpha virt. eigenvalues --    2.33003   2.37806   2.46772   2.53241   2.61796
 Alpha virt. eigenvalues --    2.65580   2.81071   2.83100   2.98222   3.07364
 Alpha virt. eigenvalues --    3.16445   3.91211   4.14405   4.23104   4.26344
 Alpha virt. eigenvalues --    4.33584   4.48932
          Condensed to atoms (all electrons):
               1          2          3          4          5          6
     1  C    5.982175  -0.636941   0.221727   0.003060   0.054829   0.072326
     2  C   -0.636941   7.566739  -0.409371   0.043769  -0.043537  -0.233087
     3  C    0.221727  -0.409371   5.145084  -0.014032   0.007021   0.412087
     4  O    0.003060   0.043769  -0.014032   8.139611   0.032423   0.003027
     5  O    0.054829  -0.043537   0.007021   0.032423   8.253296  -0.001474
     6  O    0.072326  -0.233087   0.412087   0.003027  -0.001474   8.296238
     7  H    0.003178   0.001717  -0.000104  -0.024069   0.196259  -0.000014
     8  H    0.385206  -0.031336  -0.021976  -0.019795  -0.000147   0.016331
     9  H    0.308994  -0.269713   0.052541  -0.136255   0.024474  -0.001430
    10  H    0.056336  -0.259416   0.478297  -0.000331   0.000024  -0.063359
    11  H    0.088689   0.010784   0.051971  -0.018344  -0.001810  -0.003474
    12  H   -0.002268   0.312651   0.008298  -0.003662  -0.000349   0.004352
               7          8          9         10         11         12
     1  C    0.003178   0.385206   0.308994   0.056336   0.088689  -0.002268
     2  C    0.001717  -0.031336  -0.269713  -0.259416   0.010784   0.312651
     3  C   -0.000104  -0.021976   0.052541   0.478297   0.051971   0.008298
     4  O   -0.024069  -0.019795  -0.136255  -0.000331  -0.018344  -0.003662
     5  O    0.196259  -0.000147   0.024474   0.000024  -0.001810  -0.000349
     6  O   -0.000014   0.016331  -0.001430  -0.063359  -0.003474   0.004352
     7  H    0.337423   0.000555  -0.000106  -0.000000  -0.000171   0.000009
     8  H    0.000555   0.403382  -0.032982   0.000586  -0.027465   0.002843
     9  H   -0.000106  -0.032982   0.850918  -0.000082   0.098747   0.000890
    10  H   -0.000000   0.000586  -0.000082   0.637617   0.000033   0.000568
    11  H   -0.000171  -0.027465   0.098747   0.000033   0.536594  -0.006695
    12  H    0.000009   0.002843   0.000890   0.000568  -0.006695   0.469310
 Mulliken charges:
               1
     1  C   -0.537311
     2  C   -0.052259
     3  C    0.068459
     4  O   -0.005403
     5  O   -0.521010
     6  O   -0.501523
     7  H    0.485325
     8  H    0.324799
     9  H    0.104004
    10  H    0.149728
    11  H    0.271140
    12  H    0.214052
 Sum of Mulliken charges =  -0.00000
 Mulliken charges with hydrogens summed into heavy atoms:
               1
     1  C    0.162631
     2  C    0.161793
     3  C    0.218187
     4  O   -0.005403
     5  O   -0.035685
     6  O   -0.501523
 APT charges:
               1
     1  C   -0.892118
     2  C   -0.235234
     3  C   -0.451890
     4  O    0.083251
     5  O   -0.840735
     6  O   -0.446762
     7  H    0.774669
     8  H    0.454401
     9  H    0.176970
    10  H    0.549313
    11  H    0.335465
    12  H    0.492670
 Sum of APT charges =  -0.00000
 APT charges with hydrogens summed into heavy atoms:
               1
     1  C    0.074718
     2  C    0.257436
     3  C    0.097423
     4  O    0.083251
     5  O   -0.066066
     6  O   -0.446762
 Electronic spatial extent (au):  <R**2>=            765.1366
 Charge=             -0.0000 electrons
 Dipole moment (field-independent basis, Debye):
    X=             -3.6301    Y=              1.7050    Z=              0.2336  Tot=              4.0174
 Quadrupole moment (field-independent basis, Debye-Ang):
   XX=            -40.7296   YY=            -38.7864   ZZ=            -34.6873
   XY=              8.2722   XZ=              3.9832   YZ=              1.6400
 Traceless Quadrupole moment (field-independent basis, Debye-Ang):
   XX=             -2.6619   YY=             -0.7186   ZZ=              3.3805
   XY=              8.2722   XZ=              3.9832   YZ=              1.6400
 Octapole moment (field-independent basis, Debye-Ang**2):
  XXX=            -43.1170  YYY=              0.0411  ZZZ=             -1.4888  XYY=            -10.7365
  XXY=              6.9656  XXZ=            -19.1392  XZZ=             -9.0244  YZZ=             -2.6248
  YYZ=             -1.5030  XYZ=             -5.4680
 Hexadecapole moment (field-independent basis, Debye-Ang**3):
 XXXX=           -707.0261 YYYY=           -139.4843 ZZZZ=            -71.3130 XXXY=             60.5442
 XXXZ=             53.7289 YYYX=              6.3754 YYYZ=             -0.8319 ZZZX=              9.6442
 ZZZY=              3.3493 XXYY=           -160.0295 XXZZ=           -123.9619 YYZZ=            -37.1040
 XXYZ=              7.7976 YYXZ=              2.6839 ZZXY=              0.9540
 N-N= 2.345598019806D+02 E-N=-1.272898151871D+03  KE= 3.402523591629D+02
  Exact polarizability:   0.000   0.000   0.000   0.000   0.000   0.000
 Approx polarizability: 141.691   7.454  81.664 -23.317  -4.009  78.583
 Calling FoFJK, ICntrl=    100127 FMM=F ISym2X=0 I1Cent= 0 IOpClX= 0 NMat=1 NMatS=1 NMatT=0.
 -------------------------------------------------------------------
 Center     Atomic                   Forces (Hartrees/Bohr)
 Number     Number              X              Y              Z
 -------------------------------------------------------------------
      1        6          -0.000000213    0.000000957    0.000000046
      2        6           0.000000240    0.000000044   -0.000000200
      3        6           0.000000390    0.000000690    0.000000101
      4        8           0.000000504   -0.000000272   -0.000000059
      5        8          -0.000000287    0.000000135   -0.000000616
      6        8          -0.000000037   -0.000000938    0.000000931
      7        1           0.000000003   -0.000000120   -0.000000137
      8        1          -0.000000159   -0.000000344    0.000000317
      9        1          -0.000000372    0.000000549   -0.000000201
     10        1          -0.000000130   -0.000000780    0.000000455
     11        1          -0.000000184    0.000000316   -0.000000139
     12        1           0.000000244   -0.000000237   -0.000000499
 -------------------------------------------------------------------
 Cartesian Forces:  Max     0.000000957 RMS     0.000000421
 IRC-IRC-IRC-IRC-IRC-IRC-IRC-IRC-IRC-IRC-IRC-IRC-IRC-IRC-IRC-IRC-IRC-IRC
          ******** Start new reaction path calculation ********
 Supplied step size of   0.1500 bohr.
    Integration on MW PES will use step size of   0.1613 sqrt(amu)*bohr.
 Point Number:   0          Path Number:   1
 Calculating another point on the path.
 IRC-IRC-IRC-IRC-IRC-IRC-IRC-IRC-IRC-IRC-IRC-IRC-IRC-IRC-IRC-IRC-IRC-IRC
                          Input orientation:                          
 ---------------------------------------------------------------------
 Center     Atomic      Atomic             Coordinates (Angstroms)
 Number     Number       Type             X           Y           Z
 ---------------------------------------------------------------------
      1          6           0       -0.362540    0.054074    0.307076
      2          6           0        0.798696    0.896724    0.076367
      3          6           0        2.050836    0.239743   -0.138396
      4          8           0       -1.492689    0.437485   -0.340725
      5          8           0       -2.590198   -0.477023    0.055461
      6          8           0        2.248152   -0.979144   -0.040631
      7          1           0       -2.995431   -0.611868   -0.822062
      8          1           0       -0.137656   -1.012861    0.363237
      9          1           0       -0.846275    0.130334    1.693237
     10          1           0        2.890640    0.914031   -0.403586
     11          1           0       -0.071568    0.605371    1.460912
     12          1           0        0.666670    1.966648   -0.037279
 ---------------------------------------------------------------------
                    Distance matrix (angstroms):
                    1          2          3          4          5
     1  C    0.000000
     2  C    1.453187   0.000000
     3  C    2.461158   1.430246   0.000000
     4  O    1.357897   2.373881   3.554800   0.000000
     5  O    2.303874   3.656804   4.700056   1.482503   0.000000
     6  O    2.829161   2.373498   1.238619   4.011332   4.865284
     7  H    2.941181   4.180720   5.163085   1.895009   0.975932
     8  H    1.091823   2.146057   2.571021   2.105987   2.529192
     9  H    1.470122   2.430546   3.429301   2.156199   2.468291
    10  H    3.439149   2.146366   1.109172   4.409606   5.673213
    11  H    1.311461   1.661086   2.682548   2.300796   3.080643
    12  H    2.199043   1.084013   2.215478   2.663315   4.072753
                    6          7          8          9         10
     6  O    0.000000
     7  H    5.314197   0.000000
     8  H    2.419985   3.119713   0.000000
     9  H    3.716547   3.390643   1.891543   0.000000
    10  H    2.031906   6.095024   3.670355   4.356075   0.000000
    11  H    3.185344   3.904179   1.956510   0.937980   3.513730
    12  H    3.343470   4.547044   3.112046   2.942064   2.487615
                   11         12
    11  H    0.000000
    12  H    2.154680   0.000000
 Symmetry turned off by external request.
 Stoichiometry    C3H6O3
 Framework group  C1[X(C3H6O3)]
 Deg. of freedom    30
 Full point group                 C1      NOp   1
 Rotational constants (GHZ):          10.4843839           1.6216409           1.4815315
 Standard basis: 6-31+G(d) (6D, 7F)
   126 basis functions,   216 primitive gaussians,   126 cartesian basis functions
    24 alpha electrons       24 beta electrons
       nuclear repulsion energy       234.4378139547 Hartrees.
 NAtoms=   12 NActive=   12 NUniq=   12 SFac= 1.00D+00 NAtFMM=   60 NAOKFM=F Big=F
 Integral buffers will be    131072 words long.
 Raffenetti 2 integral format.
 Two-electron integral symmetry is turned off.
 One-electron integrals computed using PRISM.
 NBasis=   126 RedAO= T EigKep=  8.61D-05  NBF=   126
 NBsUse=   126 1.00D-06 EigRej= -1.00D+00 NBFU=   126
 Initial guess from the checkpoint file:  "/scratch/bell/zhao922/YARP/paper-example/KHP-network/pp_0/IRC-folder/Gau-37799.chk"
 B after Tr=    -0.009824    0.038796    0.043999
         Rot=    1.000000   -0.000253    0.000079   -0.000023 Ang=  -0.03 deg.
 ExpMin= 4.38D-02 ExpMax= 5.48D+03 ExpMxC= 8.25D+02 IAcc=3 IRadAn=         5 AccDes= 0.00D+00
 Harris functional with IExCor=  402 and IRadAn=       5 diagonalized for initial guess.
 HarFok:  IExCor=  402 AccDes= 0.00D+00 IRadAn=         5 IDoV= 1 UseB2=F ITyADJ=14
 ICtDFT=  3500011 ScaDFX=  1.000000  1.000000  1.000000  1.000000
 FoFCou: FMM=F IPFlag=           0 FMFlag=      100000 FMFlg1=           0
         NFxFlg=           0 DoJE=T BraDBF=F KetDBF=T FulRan=T
         wScrn=  0.000000 ICntrl=       500 IOpCl=  0 I1Cent=   200000004 NGrid=           0
         NMat0=    1 NMatS0=      1 NMatT0=    0 NMatD0=    1 NMtDS0=    0 NMtDT0=    0
 Symmetry not used in FoFCou.
 Keep R1 ints in memory in canonical form, NReq=47237219.
 Requested convergence on RMS density matrix=1.00D-08 within 128 cycles.
 Requested convergence on MAX density matrix=1.00D-06.
 Requested convergence on             energy=1.00D-06.
 No special actions if energy rises.
 SCF Done:  E(RB3LYP) =  -343.342372523     A.U. after   13 cycles
            NFock= 13  Conv=0.58D-08     -V/T= 2.0090
 DoSCS=F DFT=T ScalE2(SS,OS)=  1.000000  1.000000
 Range of M.O.s used for correlation:     1   126
 NBasis=   126 NAE=    24 NBE=    24 NFC=     0 NFV=     0
 NROrb=    126 NOA=    24 NOB=    24 NVA=   102 NVB=   102

 **** Warning!!: The largest alpha MO coefficient is  0.32015936D+02

 Symmetrizing basis deriv contribution to polar:
 IMax=3 JMax=2 DiffMx= 0.00D+00
 G2DrvN: will do    13 centers at a time, making    1 passes.
 Calling FoFCou, ICntrl=  3107 FMM=F I1Cent=   0 AccDes= 0.00D+00.
 End of G2Drv F.D. properties file   721 does not exist.
 End of G2Drv F.D. properties file   722 does not exist.
 End of G2Drv F.D. properties file   788 does not exist.
          IDoAtm=111111111111
          Differentiating once with respect to nuclear coordinates.
 Keep R1 ints in memory in canonical form, NReq=47193241.
          There are    39 degrees of freedom in the 1st order CPHF.  IDoFFX=6 NUNeed=     0.
     33 vectors produced by pass  0 Test12= 6.28D-15 2.56D-09 XBig12= 2.43D-01 2.45D-01.
 AX will form    33 AO Fock derivatives at one time.
     33 vectors produced by pass  1 Test12= 6.28D-15 2.56D-09 XBig12= 5.29D-02 6.71D-02.
     33 vectors produced by pass  2 Test12= 6.28D-15 2.56D-09 XBig12= 1.24D-03 7.25D-03.
     33 vectors produced by pass  3 Test12= 6.28D-15 2.56D-09 XBig12= 5.09D-06 3.45D-04.
     33 vectors produced by pass  4 Test12= 6.28D-15 2.56D-09 XBig12= 9.45D-09 1.51D-05.
     29 vectors produced by pass  5 Test12= 6.28D-15 2.56D-09 XBig12= 1.32D-11 5.57D-07.
      5 vectors produced by pass  6 Test12= 6.28D-15 2.56D-09 XBig12= 1.19D-14 1.51D-08.
 InvSVY:  IOpt=1 It=  1 EMax= 1.44D-15
 Solved reduced A of dimension   199 with    33 vectors.
 End of Minotr F.D. properties file   721 does not exist.
 End of Minotr F.D. properties file   722 does not exist.
 End of Minotr F.D. properties file   788 does not exist.
 Calling FoFJK, ICntrl=    100127 FMM=F ISym2X=0 I1Cent= 0 IOpClX= 0 NMat=1 NMatS=1 NMatT=0.
 -------------------------------------------------------------------
 Center     Atomic                   Forces (Hartrees/Bohr)
 Number     Number              X              Y              Z
 -------------------------------------------------------------------
      1        6           0.014089361    0.006152090   -0.020472491
      2        6          -0.002692429   -0.003755090   -0.007694595
      3        6          -0.000604617    0.000246204    0.000499243
      4        8           0.003358471   -0.000200819    0.006205191
      5        8          -0.000671127   -0.000700776    0.000751772
      6        8           0.000391665   -0.000587398    0.000088004
      7        1           0.000070458    0.000056304   -0.000024462
      8        1          -0.001166071    0.000325862    0.001601395
      9        1          -0.000893495    0.002949940    0.009350913
     10        1           0.000029318    0.000030215    0.000213242
     11        1          -0.012113748   -0.004448031    0.009298384
     12        1           0.000202214   -0.000068501    0.000183404
 -------------------------------------------------------------------
 Cartesian Forces:  Max     0.020472491 RMS     0.005633835
 IRC-IRC-IRC-IRC-IRC-IRC-IRC-IRC-IRC-IRC-IRC-IRC-IRC-IRC-IRC-IRC-IRC-IRC
 Pt  1 Step number   1 out of a maximum of 100
 Modified Bulirsch-Stoer Extrapolation Cycles:
    EPS =    0.000010000000000
      PEZero:  N= 2 I= 1 D=  4.20D-04 Err=  7.38D-04
      PEZero:  N= 3 I= 2 D=  4.20D-04 Err=  4.92D-04
      PEZero:  N= 3 I= 1 D=  8.40D-04 Err=  1.11D-07
 Maximum DWI energy   std dev =  0.000012594 at pt     1
 Maximum DWI gradient std dev =  0.021411345 at pt    22
 CORRECTOR INTEGRATION CONVERGENCE:
   Recorrection delta-x convergence threshold:    0.010000
   Delta-x Convergence Met
 Point Number:   1          Path Number:   1
   CHANGE IN THE REACTION COORDINATE =    0.16117
   NET REACTION COORDINATE UP TO THIS POINT =    0.16117
  # OF POINTS ALONG THE PATH =   1
  # OF STEPS =   1

 Calculating another point on the path.
 IRC-IRC-IRC-IRC-IRC-IRC-IRC-IRC-IRC-IRC-IRC-IRC-IRC-IRC-IRC-IRC-IRC-IRC
                          Input orientation:                          
 ---------------------------------------------------------------------
 Center     Atomic      Atomic             Coordinates (Angstroms)
 Number     Number       Type             X           Y           Z
 ---------------------------------------------------------------------
      1          6           0       -0.357614    0.056199    0.299699
      2          6           0        0.797554    0.895373    0.073863
      3          6           0        2.050684    0.239788   -0.138192
      4          8           0       -1.491834    0.437432   -0.339113
      5          8           0       -2.590348   -0.477190    0.055672
      6          8           0        2.248260   -0.979267   -0.040613
      7          1           0       -2.995135   -0.611626   -0.822207
      8          1           0       -0.142680   -1.011783    0.369733
      9          1           0       -0.849364    0.143204    1.732679
     10          1           0        2.890820    0.914124   -0.402732
     11          1           0       -0.120884    0.587212    1.500021
     12          1           0        0.667492    1.966215   -0.037031
 ---------------------------------------------------------------------
                    Distance matrix (angstroms):
                    1          2          3          4          5
     1  C    0.000000
     2  C    1.445556   0.000000
     3  C    2.454660   1.430067   0.000000
     4  O    1.356420   2.370983   3.553712   0.000000
     5  O    2.308496   3.655427   4.700087   1.482944   0.000000
     6  O    2.824638   2.373168   1.238811   4.010541   4.865540
     7  H    2.942988   4.178335   5.162662   1.895737   0.976010
     8  H    1.091644   2.146817   2.575900   2.103070   2.524976
     9  H    1.517504   2.455559   3.452501   2.188986   2.495650
    10  H    3.432459   2.146918   1.109297   4.408961   5.673543
    11  H    1.333713   1.724071   2.742290   2.298772   3.052434
    12  H    2.193717   1.084397   2.214499   2.662916   4.073370
                    6          7          8          9         10
     6  O    0.000000
     7  H    5.314061   0.000000
     8  H    2.426115   3.117266   0.000000
     9  H    3.741628   3.420752   1.921202   0.000000
    10  H    2.031980   6.094944   3.675315   4.375303   0.000000
    11  H    3.231138   3.884749   1.958268   0.884283   3.577388
    12  H    3.342859   4.547153   3.112926   2.959070   2.486729
                   11         12
    11  H    0.000000
    12  H    2.210366   0.000000
 Symmetry turned off by external request.
 Stoichiometry    C3H6O3
 Framework group  C1[X(C3H6O3)]
 Deg. of freedom    30
 Full point group                 C1      NOp   1
 Rotational constants (GHZ):          10.4548781           1.6210814           1.4820460
 Standard basis: 6-31+G(d) (6D, 7F)
   126 basis functions,   216 primitive gaussians,   126 cartesian basis functions
    24 alpha electrons       24 beta electrons
       nuclear repulsion energy       234.2896839728 Hartrees.
 NAtoms=   12 NActive=   12 NUniq=   12 SFac= 1.00D+00 NAtFMM=   60 NAOKFM=F Big=F
 Integral buffers will be    131072 words long.
 Raffenetti 2 integral format.
 Two-electron integral symmetry is turned off.
 One-electron integrals computed using PRISM.
 NBasis=   126 RedAO= T EigKep=  8.42D-05  NBF=   126
 NBsUse=   126 1.00D-06 EigRej= -1.00D+00 NBFU=   126
 Initial guess from the checkpoint file:  "/scratch/bell/zhao922/YARP/paper-example/KHP-network/pp_0/IRC-folder/Gau-37799.chk"
 B after Tr=    -0.001089   -0.000065    0.001665
         Rot=    1.000000   -0.000214    0.000066   -0.000016 Ang=  -0.03 deg.
 ExpMin= 4.38D-02 ExpMax= 5.48D+03 ExpMxC= 8.25D+02 IAcc=3 IRadAn=         5 AccDes= 0.00D+00
 Harris functional with IExCor=  402 and IRadAn=       5 diagonalized for initial guess.
 HarFok:  IExCor=  402 AccDes= 0.00D+00 IRadAn=         5 IDoV= 1 UseB2=F ITyADJ=14
 ICtDFT=  3500011 ScaDFX=  1.000000  1.000000  1.000000  1.000000
 FoFCou: FMM=F IPFlag=           0 FMFlag=      100000 FMFlg1=           0
         NFxFlg=           0 DoJE=T BraDBF=F KetDBF=T FulRan=T
         wScrn=  0.000000 ICntrl=       500 IOpCl=  0 I1Cent=   200000004 NGrid=           0
         NMat0=    1 NMatS0=      1 NMatT0=    0 NMatD0=    1 NMtDS0=    0 NMtDT0=    0
 Symmetry not used in FoFCou.
 Keep R1 ints in memory in canonical form, NReq=47237219.
 Requested convergence on RMS density matrix=1.00D-08 within 128 cycles.
 Requested convergence on MAX density matrix=1.00D-06.
 Requested convergence on             energy=1.00D-06.
 No special actions if energy rises.
 SCF Done:  E(RB3LYP) =  -343.347025736     A.U. after   13 cycles
            NFock= 13  Conv=0.72D-08     -V/T= 2.0090
 DoSCS=F DFT=T ScalE2(SS,OS)=  1.000000  1.000000
 Range of M.O.s used for correlation:     1   126
 NBasis=   126 NAE=    24 NBE=    24 NFC=     0 NFV=     0
 NROrb=    126 NOA=    24 NOB=    24 NVA=   102 NVB=   102

 **** Warning!!: The largest alpha MO coefficient is  0.32577257D+02

 Symmetrizing basis deriv contribution to polar:
 IMax=3 JMax=2 DiffMx= 0.00D+00
 G2DrvN: will do    13 centers at a time, making    1 passes.
 Calling FoFCou, ICntrl=  3107 FMM=F I1Cent=   0 AccDes= 0.00D+00.
 End of G2Drv F.D. properties file   721 does not exist.
 End of G2Drv F.D. properties file   722 does not exist.
 End of G2Drv F.D. properties file   788 does not exist.
          IDoAtm=111111111111
          Differentiating once with respect to nuclear coordinates.
 Keep R1 ints in memory in canonical form, NReq=47193241.
          There are    39 degrees of freedom in the 1st order CPHF.  IDoFFX=6 NUNeed=     0.
     33 vectors produced by pass  0 Test12= 6.28D-15 2.56D-09 XBig12= 2.40D-01 2.37D-01.
 AX will form    33 AO Fock derivatives at one time.
     33 vectors produced by pass  1 Test12= 6.28D-15 2.56D-09 XBig12= 5.59D-02 7.37D-02.
     33 vectors produced by pass  2 Test12= 6.28D-15 2.56D-09 XBig12= 1.36D-03 7.79D-03.
     33 vectors produced by pass  3 Test12= 6.28D-15 2.56D-09 XBig12= 6.77D-06 3.74D-04.
     33 vectors produced by pass  4 Test12= 6.28D-15 2.56D-09 XBig12= 1.39D-08 1.83D-05.
     29 vectors produced by pass  5 Test12= 6.28D-15 2.56D-09 XBig12= 1.88D-11 6.67D-07.
      5 vectors produced by pass  6 Test12= 6.28D-15 2.56D-09 XBig12= 1.73D-14 2.19D-08.
 InvSVY:  IOpt=1 It=  1 EMax= 2.00D-15
 Solved reduced A of dimension   199 with    33 vectors.
 End of Minotr F.D. properties file   721 does not exist.
 End of Minotr F.D. properties file   722 does not exist.
 End of Minotr F.D. properties file   788 does not exist.
 Calling FoFJK, ICntrl=    100127 FMM=F ISym2X=0 I1Cent= 0 IOpClX= 0 NMat=1 NMatS=1 NMatT=0.
 -------------------------------------------------------------------
 Center     Atomic                   Forces (Hartrees/Bohr)
 Number     Number              X              Y              Z
 -------------------------------------------------------------------
      1        6           0.025633483    0.010414728   -0.039366910
      2        6          -0.006816988   -0.007126221   -0.012516256
      3        6          -0.000384596   -0.000127823    0.001248702
      4        8           0.005570703   -0.000278275    0.011001940
      5        8          -0.000813853   -0.001045743    0.001522253
      6        8           0.000748995   -0.000544943    0.000072434
      7        1           0.000158523    0.000122210   -0.000053364
      8        1          -0.002242290    0.000532640    0.002699917
      9        1          -0.002433102    0.004956349    0.017511565
     10        1           0.000073640    0.000018659    0.000350085
     11        1          -0.019873711   -0.006713570    0.017553628
     12        1           0.000379196   -0.000208011   -0.000023995
 -------------------------------------------------------------------
 Cartesian Forces:  Max     0.039366910 RMS     0.010309497
 IRC-IRC-IRC-IRC-IRC-IRC-IRC-IRC-IRC-IRC-IRC-IRC-IRC-IRC-IRC-IRC-IRC-IRC
 Pt  2 Step number   1 out of a maximum of 100
 Modified Bulirsch-Stoer Extrapolation Cycles:
    EPS =    0.000010000000000
      PEZero:  N= 2 I= 1 D=  8.40D-04 Err=  5.16D-05
      PEZero:  N= 3 I= 2 D=  8.40D-04 Err=  3.44D-05
      PEZero:  N= 3 I= 1 D=  1.68D-03 Err=  1.40D-07
 Maximum DWI energy   std dev =  0.000027270 at pt    27
 Maximum DWI gradient std dev =  0.019604413 at pt    25
 CORRECTOR INTEGRATION CONVERGENCE:
   Recorrection delta-x convergence threshold:    0.010000
   Delta-x Convergence Met
 Point Number:   2          Path Number:   1
   CHANGE IN THE REACTION COORDINATE =    0.16112
   NET REACTION COORDINATE UP TO THIS POINT =    0.32229
  # OF POINTS ALONG THE PATH =   2
  # OF STEPS =   1

 Calculating another point on the path.
 IRC-IRC-IRC-IRC-IRC-IRC-IRC-IRC-IRC-IRC-IRC-IRC-IRC-IRC-IRC-IRC-IRC-IRC
                          Input orientation:                          
 ---------------------------------------------------------------------
 Center     Atomic      Atomic             Coordinates (Angstroms)
 Number     Number       Type             X           Y           Z
 ---------------------------------------------------------------------
      1          6           0       -0.352554    0.058174    0.291714
      2          6           0        0.796001    0.893934    0.071532
      3          6           0        2.050691    0.239695   -0.137905
      4          8           0       -1.491056    0.437401   -0.337505
      5          8           0       -2.590432   -0.477326    0.055910
      6          8           0        2.248374   -0.979303   -0.040610
      7          1           0       -2.994713   -0.611303   -0.822344
      8          1           0       -0.148079   -1.010628    0.375812
      9          1           0       -0.855532    0.154680    1.774284
     10          1           0        2.891016    0.914123   -0.401964
     11          1           0       -0.165528    0.572783    1.542247
     12          1           0        0.668406    1.965649   -0.037516
 ---------------------------------------------------------------------
                    Distance matrix (angstroms):
                    1          2          3          4          5
     1  C    0.000000
     2  C    1.437412   0.000000
     3  C    2.448082   1.430433   0.000000
     4  O    1.354959   2.367776   3.552871   0.000000
     5  O    2.313106   3.653563   4.700180   1.483282   0.000000
     6  O    2.819862   2.372968   1.238750   4.009804   4.865730
     7  H    2.944542   4.175436   5.162243   1.896268   0.976076
     8  H    1.091430   2.147377   2.581046   2.099807   2.520284
     9  H    1.568539   2.484637   3.479917   2.223392   2.522324
    10  H    3.425578   2.147951   1.109381   4.408398   5.673803
    11  H    1.365149   1.786247   2.800979   2.304087   3.031845
    12  H    2.188427   1.084780   2.213529   2.662482   4.073926
                    6          7          8          9         10
     6  O    0.000000
     7  H    5.313802   0.000000
     8  H    2.432566   3.114219   0.000000
     9  H    3.770144   3.450407   1.952987   0.000000
    10  H    2.031902   6.094706   3.680448   4.398798   0.000000
    11  H    3.277396   3.872678   1.966739   0.839497   3.638534
    12  H    3.342013   4.546986   3.113794   2.980707   2.485664
                   11         12
    11  H    0.000000
    12  H    2.265210   0.000000
 Symmetry turned off by external request.
 Stoichiometry    C3H6O3
 Framework group  C1[X(C3H6O3)]
 Deg. of freedom    30
 Full point group                 C1      NOp   1
 Rotational constants (GHZ):          10.4214740           1.6203790           1.4825416
 Standard basis: 6-31+G(d) (6D, 7F)
   126 basis functions,   216 primitive gaussians,   126 cartesian basis functions
    24 alpha electrons       24 beta electrons
       nuclear repulsion energy       234.1277825150 Hartrees.
 NAtoms=   12 NActive=   12 NUniq=   12 SFac= 1.00D+00 NAtFMM=   60 NAOKFM=F Big=F
 Integral buffers will be    131072 words long.
 Raffenetti 2 integral format.
 Two-electron integral symmetry is turned off.
 One-electron integrals computed using PRISM.
 NBasis=   126 RedAO= T EigKep=  8.20D-05  NBF=   126
 NBsUse=   126 1.00D-06 EigRej= -1.00D+00 NBFU=   126
 Initial guess from the checkpoint file:  "/scratch/bell/zhao922/YARP/paper-example/KHP-network/pp_0/IRC-folder/Gau-37799.chk"
 B after Tr=    -0.001061   -0.000022    0.001745
         Rot=    1.000000   -0.000195    0.000059   -0.000012 Ang=  -0.02 deg.
 ExpMin= 4.38D-02 ExpMax= 5.48D+03 ExpMxC= 8.25D+02 IAcc=3 IRadAn=         5 AccDes= 0.00D+00
 Harris functional with IExCor=  402 and IRadAn=       5 diagonalized for initial guess.
 HarFok:  IExCor=  402 AccDes= 0.00D+00 IRadAn=         5 IDoV= 1 UseB2=F ITyADJ=14
 ICtDFT=  3500011 ScaDFX=  1.000000  1.000000  1.000000  1.000000
 FoFCou: FMM=F IPFlag=           0 FMFlag=      100000 FMFlg1=           0
         NFxFlg=           0 DoJE=T BraDBF=F KetDBF=T FulRan=T
         wScrn=  0.000000 ICntrl=       500 IOpCl=  0 I1Cent=   200000004 NGrid=           0
         NMat0=    1 NMatS0=      1 NMatT0=    0 NMatD0=    1 NMtDS0=    0 NMtDT0=    0
 Symmetry not used in FoFCou.
 Keep R1 ints in memory in canonical form, NReq=47237219.
 Requested convergence on RMS density matrix=1.00D-08 within 128 cycles.
 Requested convergence on MAX density matrix=1.00D-06.
 Requested convergence on             energy=1.00D-06.
 No special actions if energy rises.
 SCF Done:  E(RB3LYP) =  -343.353742836     A.U. after   13 cycles
            NFock= 13  Conv=0.69D-08     -V/T= 2.0090
 DoSCS=F DFT=T ScalE2(SS,OS)=  1.000000  1.000000
 Range of M.O.s used for correlation:     1   126
 NBasis=   126 NAE=    24 NBE=    24 NFC=     0 NFV=     0
 NROrb=    126 NOA=    24 NOB=    24 NVA=   102 NVB=   102

 **** Warning!!: The largest alpha MO coefficient is  0.32888084D+02

 Symmetrizing basis deriv contribution to polar:
 IMax=3 JMax=2 DiffMx= 0.00D+00
 G2DrvN: will do    13 centers at a time, making    1 passes.
 Calling FoFCou, ICntrl=  3107 FMM=F I1Cent=   0 AccDes= 0.00D+00.
 End of G2Drv F.D. properties file   721 does not exist.
 End of G2Drv F.D. properties file   722 does not exist.
 End of G2Drv F.D. properties file   788 does not exist.
          IDoAtm=111111111111
          Differentiating once with respect to nuclear coordinates.
 Keep R1 ints in memory in canonical form, NReq=47193241.
          There are    39 degrees of freedom in the 1st order CPHF.  IDoFFX=6 NUNeed=     0.
     33 vectors produced by pass  0 Test12= 6.28D-15 2.56D-09 XBig12= 2.30D-01 2.23D-01.
 AX will form    33 AO Fock derivatives at one time.
     33 vectors produced by pass  1 Test12= 6.28D-15 2.56D-09 XBig12= 5.69D-02 7.58D-02.
     33 vectors produced by pass  2 Test12= 6.28D-15 2.56D-09 XBig12= 1.42D-03 7.84D-03.
     33 vectors produced by pass  3 Test12= 6.28D-15 2.56D-09 XBig12= 8.55D-06 4.14D-04.
     33 vectors produced by pass  4 Test12= 6.28D-15 2.56D-09 XBig12= 1.96D-08 2.16D-05.
     29 vectors produced by pass  5 Test12= 6.28D-15 2.56D-09 XBig12= 2.38D-11 6.54D-07.
      5 vectors produced by pass  6 Test12= 6.28D-15 2.56D-09 XBig12= 2.19D-14 2.58D-08.
 InvSVY:  IOpt=1 It=  1 EMax= 2.66D-15
 Solved reduced A of dimension   199 with    33 vectors.
 End of Minotr F.D. properties file   721 does not exist.
 End of Minotr F.D. properties file   722 does not exist.
 End of Minotr F.D. properties file   788 does not exist.
 Calling FoFJK, ICntrl=    100127 FMM=F ISym2X=0 I1Cent= 0 IOpClX= 0 NMat=1 NMatS=1 NMatT=0.
 -------------------------------------------------------------------
 Center     Atomic                   Forces (Hartrees/Bohr)
 Number     Number              X              Y              Z
 -------------------------------------------------------------------
      1        6           0.033386959    0.012265557   -0.054056536
      2        6          -0.011519482   -0.009584933   -0.014565674
      3        6           0.000642094   -0.001152031    0.002189799
      4        8           0.006360198   -0.000143064    0.013982956
      5        8          -0.000348053   -0.001021152    0.002204036
      6        8           0.001027307    0.000120672   -0.000046400
      7        1           0.000276335    0.000206494   -0.000073319
      8        1          -0.003058535    0.000709400    0.003215248
      9        1          -0.005174986    0.005313419    0.023639146
     10        1           0.000107250   -0.000030447    0.000397238
     11        1          -0.022222826   -0.006324490    0.023607672
     12        1           0.000523738   -0.000359425   -0.000494167
 -------------------------------------------------------------------
 Cartesian Forces:  Max     0.054056536 RMS     0.013539787
 IRC-IRC-IRC-IRC-IRC-IRC-IRC-IRC-IRC-IRC-IRC-IRC-IRC-IRC-IRC-IRC-IRC-IRC
 Pt  3 Step number   1 out of a maximum of 100
 Modified Bulirsch-Stoer Extrapolation Cycles:
    EPS =    0.000010000000000
      PEZero:  N= 2 I= 1 D=  8.40D-04 Err=  6.17D-05
      PEZero:  N= 3 I= 2 D=  8.40D-04 Err=  4.10D-05
      PEZero:  N= 3 I= 1 D=  1.68D-03 Err=  1.91D-07
 Maximum DWI energy   std dev =  0.000027184 at pt    28
 Maximum DWI gradient std dev =  0.014255270 at pt    17
 CORRECTOR INTEGRATION CONVERGENCE:
   Recorrection delta-x convergence threshold:    0.010000
   Delta-x Convergence Met
 Point Number:   3          Path Number:   1
   CHANGE IN THE REACTION COORDINATE =    0.16110
   NET REACTION COORDINATE UP TO THIS POINT =    0.48339
  # OF POINTS ALONG THE PATH =   3
  # OF STEPS =   1

 Calculating another point on the path.
 IRC-IRC-IRC-IRC-IRC-IRC-IRC-IRC-IRC-IRC-IRC-IRC-IRC-IRC-IRC-IRC-IRC-IRC
                          Input orientation:                          
 ---------------------------------------------------------------------
 Center     Atomic      Atomic             Coordinates (Angstroms)
 Number     Number       Type             X           Y           Z
 ---------------------------------------------------------------------
      1          6           0       -0.347373    0.059988    0.283108
      2          6           0        0.794011    0.892423    0.069393
      3          6           0        2.050882    0.239436   -0.137513
      4          8           0       -1.490370    0.437400   -0.335888
      5          8           0       -2.590421   -0.477423    0.056181
      6          8           0        2.248498   -0.979240   -0.040624
      7          1           0       -2.994125   -0.610864   -0.822489
      8          1           0       -0.153848   -1.009341    0.381530
      9          1           0       -0.866000    0.164048    1.818511
     10          1           0        2.891225    0.914020   -0.401283
     11          1           0       -0.204363    0.562547    1.586659
     12          1           0        0.669385    1.964909   -0.038868
 ---------------------------------------------------------------------
                    Distance matrix (angstroms):
                    1          2          3          4          5
     1  C    0.000000
     2  C    1.428768   0.000000
     3  C    2.441465   1.431407   0.000000
     4  O    1.353528   2.364253   3.552324   0.000000
     5  O    2.317665   3.651169   4.700330   1.483486   0.000000
     6  O    2.814844   2.372922   1.238391   4.009138   4.865834
     7  H    2.945791   4.171966   5.161812   1.896554   0.976137
     8  H    1.091148   2.147689   2.586442   2.096196   2.515090
     9  H    1.623966   2.519044   3.512822   2.259644   2.547729
    10  H    3.418520   2.149491   1.109421   4.407927   5.673961
    11  H    1.404372   1.845986   2.857149   2.316389   3.019466
    12  H    2.183160   1.085117   2.212582   2.661963   4.074353
                    6          7          8          9         10
     6  O    0.000000
     7  H    5.313390   0.000000
     8  H    2.439341   3.110566   0.000000
     9  H    3.803103   3.479122   1.987188   0.000000
    10  H    2.031652   6.094263   3.685727   4.427944   0.000000
    11  H    3.322903   3.868289   1.981342   0.806424   3.695689
    12  H    3.340901   4.546424   3.114580   3.008382   2.484409
                   11         12
    11  H    0.000000
    12  H    2.317842   0.000000
 Symmetry turned off by external request.
 Stoichiometry    C3H6O3
 Framework group  C1[X(C3H6O3)]
 Deg. of freedom    30
 Full point group                 C1      NOp   1
 Rotational constants (GHZ):          10.3843595           1.6195327           1.4830204
 Standard basis: 6-31+G(d) (6D, 7F)
   126 basis functions,   216 primitive gaussians,   126 cartesian basis functions
    24 alpha electrons       24 beta electrons
       nuclear repulsion energy       233.9542820170 Hartrees.
 NAtoms=   12 NActive=   12 NUniq=   12 SFac= 1.00D+00 NAtFMM=   60 NAOKFM=F Big=F
 Integral buffers will be    131072 words long.
 Raffenetti 2 integral format.
 Two-electron integral symmetry is turned off.
 One-electron integrals computed using PRISM.
 NBasis=   126 RedAO= T EigKep=  7.98D-05  NBF=   126
 NBsUse=   126 1.00D-06 EigRej= -1.00D+00 NBFU=   126
 Initial guess from the checkpoint file:  "/scratch/bell/zhao922/YARP/paper-example/KHP-network/pp_0/IRC-folder/Gau-37799.chk"
 B after Tr=    -0.001035    0.000017    0.001815
         Rot=    1.000000   -0.000174    0.000053   -0.000008 Ang=  -0.02 deg.
 ExpMin= 4.38D-02 ExpMax= 5.48D+03 ExpMxC= 8.25D+02 IAcc=3 IRadAn=         5 AccDes= 0.00D+00
 Harris functional with IExCor=  402 and IRadAn=       5 diagonalized for initial guess.
 HarFok:  IExCor=  402 AccDes= 0.00D+00 IRadAn=         5 IDoV= 1 UseB2=F ITyADJ=14
 ICtDFT=  3500011 ScaDFX=  1.000000  1.000000  1.000000  1.000000
 FoFCou: FMM=F IPFlag=           0 FMFlag=      100000 FMFlg1=           0
         NFxFlg=           0 DoJE=T BraDBF=F KetDBF=T FulRan=T
         wScrn=  0.000000 ICntrl=       500 IOpCl=  0 I1Cent=   200000004 NGrid=           0
         NMat0=    1 NMatS0=      1 NMatT0=    0 NMatD0=    1 NMtDS0=    0 NMtDT0=    0
 Symmetry not used in FoFCou.
 Keep R1 ints in memory in canonical form, NReq=47237219.
 Requested convergence on RMS density matrix=1.00D-08 within 128 cycles.
 Requested convergence on MAX density matrix=1.00D-06.
 Requested convergence on             energy=1.00D-06.
 No special actions if energy rises.
 EnCoef did     1 forward-backward iterations
 SCF Done:  E(RB3LYP) =  -343.361588035     A.U. after   13 cycles
            NFock= 13  Conv=0.50D-08     -V/T= 2.0089
 DoSCS=F DFT=T ScalE2(SS,OS)=  1.000000  1.000000
 Range of M.O.s used for correlation:     1   126
 NBasis=   126 NAE=    24 NBE=    24 NFC=     0 NFV=     0
 NROrb=    126 NOA=    24 NOB=    24 NVA=   102 NVB=   102

 **** Warning!!: The largest alpha MO coefficient is  0.32848329D+02

 Symmetrizing basis deriv contribution to polar:
 IMax=3 JMax=2 DiffMx= 0.00D+00
 G2DrvN: will do    13 centers at a time, making    1 passes.
 Calling FoFCou, ICntrl=  3107 FMM=F I1Cent=   0 AccDes= 0.00D+00.
 End of G2Drv F.D. properties file   721 does not exist.
 End of G2Drv F.D. properties file   722 does not exist.
 End of G2Drv F.D. properties file   788 does not exist.
          IDoAtm=111111111111
          Differentiating once with respect to nuclear coordinates.
 Keep R1 ints in memory in canonical form, NReq=47193241.
          There are    39 degrees of freedom in the 1st order CPHF.  IDoFFX=6 NUNeed=     0.
     33 vectors produced by pass  0 Test12= 6.28D-15 2.56D-09 XBig12= 2.19D-01 2.08D-01.
 AX will form    33 AO Fock derivatives at one time.
     33 vectors produced by pass  1 Test12= 6.28D-15 2.56D-09 XBig12= 5.68D-02 7.59D-02.
     33 vectors produced by pass  2 Test12= 6.28D-15 2.56D-09 XBig12= 1.42D-03 7.35D-03.
     33 vectors produced by pass  3 Test12= 6.28D-15 2.56D-09 XBig12= 9.38D-06 4.49D-04.
     33 vectors produced by pass  4 Test12= 6.28D-15 2.56D-09 XBig12= 2.16D-08 2.15D-05.
     29 vectors produced by pass  5 Test12= 6.28D-15 2.56D-09 XBig12= 2.36D-11 6.06D-07.
      5 vectors produced by pass  6 Test12= 6.28D-15 2.56D-09 XBig12= 2.20D-14 2.09D-08.
 InvSVY:  IOpt=1 It=  1 EMax= 1.78D-15
 Solved reduced A of dimension   199 with    33 vectors.
 End of Minotr F.D. properties file   721 does not exist.
 End of Minotr F.D. properties file   722 does not exist.
 End of Minotr F.D. properties file   788 does not exist.
 Calling FoFJK, ICntrl=    100127 FMM=F ISym2X=0 I1Cent= 0 IOpClX= 0 NMat=1 NMatS=1 NMatT=0.
 -------------------------------------------------------------------
 Center     Atomic                   Forces (Hartrees/Bohr)
 Number     Number              X              Y              Z
 -------------------------------------------------------------------
      1        6           0.037117995    0.012207678   -0.063214649
      2        6          -0.015537587   -0.010873596   -0.014593854
      3        6           0.002017560   -0.002436744    0.003199131
      4        8           0.006021770    0.000203566    0.015410092
      5        8           0.000597521   -0.000737416    0.002734330
      6        8           0.001251027    0.001064008   -0.000222223
      7        1           0.000406041    0.000303006   -0.000088523
      8        1          -0.003533161    0.000858157    0.003326458
      9        1          -0.008065092    0.004629274    0.027332139
     10        1           0.000126048   -0.000088888    0.000384901
     11        1          -0.020990613   -0.004623928    0.026808350
     12        1           0.000588492   -0.000505117   -0.001076151
 -------------------------------------------------------------------
 Cartesian Forces:  Max     0.063214649 RMS     0.015312771
 IRC-IRC-IRC-IRC-IRC-IRC-IRC-IRC-IRC-IRC-IRC-IRC-IRC-IRC-IRC-IRC-IRC-IRC
 Pt  4 Step number   1 out of a maximum of 100
 Modified Bulirsch-Stoer Extrapolation Cycles:
    EPS =    0.000010000000000
      PEZero:  N= 2 I= 1 D=  8.40D-04 Err=  6.00D-05
      PEZero:  N= 3 I= 2 D=  8.40D-04 Err=  3.99D-05
      PEZero:  N= 3 I= 1 D=  1.68D-03 Err=  2.03D-07
 Maximum DWI energy   std dev =  0.000019804 at pt    33
 Maximum DWI gradient std dev =  0.010331644 at pt    25
 CORRECTOR INTEGRATION CONVERGENCE:
   Recorrection delta-x convergence threshold:    0.010000
   Delta-x Convergence Met
 Point Number:   4          Path Number:   1
   CHANGE IN THE REACTION COORDINATE =    0.16110
   NET REACTION COORDINATE UP TO THIS POINT =    0.64449
  # OF POINTS ALONG THE PATH =   4
  # OF STEPS =   1

 Calculating another point on the path.
 IRC-IRC-IRC-IRC-IRC-IRC-IRC-IRC-IRC-IRC-IRC-IRC-IRC-IRC-IRC-IRC-IRC-IRC
                          Input orientation:                          
 ---------------------------------------------------------------------
 Center     Atomic      Atomic             Coordinates (Angstroms)
 Number     Number       Type             X           Y           Z
 ---------------------------------------------------------------------
      1          6           0       -0.342170    0.061608    0.274017
      2          6           0        0.791651    0.890885    0.067441
      3          6           0        2.051257    0.239015   -0.137002
      4          8           0       -1.489794    0.437445   -0.334263
      5          8           0       -2.590298   -0.477478    0.056485
      6          8           0        2.248639   -0.979081   -0.040656
      7          1           0       -2.993355   -0.610286   -0.822645
      8          1           0       -0.159842   -1.007894    0.386932
      9          1           0       -0.880251    0.171443    1.864734
     10          1           0        2.891445    0.913832   -0.400680
     11          1           0       -0.237714    0.555931    1.632139
     12          1           0        0.670347    1.963985   -0.041129
 ---------------------------------------------------------------------
                    Distance matrix (angstroms):
                    1          2          3          4          5
     1  C    0.000000
     2  C    1.419832   0.000000
     3  C    2.434933   1.432947   0.000000
     4  O    1.352146   2.360501   3.552087   0.000000
     5  O    2.322071   3.648303   4.700514   1.483536   0.000000
     6  O    2.809687   2.373030   1.237740   4.008570   4.865835
     7  H    2.946675   4.167978   5.161349   1.896564   0.976199
     8  H    1.090792   2.147737   2.591958   2.092343   2.509513
     9  H    1.682847   2.557951   3.550387   2.297365   2.571988
    10  H    3.411417   2.151464   1.109424   4.407563   5.673998
    11  H    1.449055   1.902648   2.910272   2.334198   3.014178
    12  H    2.177968   1.085379   2.211702   2.661289   4.074564
                    6          7          8          9         10
     6  O    0.000000
     7  H    5.312816   0.000000
     8  H    2.446312   3.106439   0.000000
     9  H    3.839814   3.506896   2.023295   0.000000
    10  H    2.031240   6.093592   3.691032   4.461943   0.000000
    11  H    3.366966   3.870347   2.000538   0.784082   3.748611
    12  H    3.339558   4.545366   3.115207   3.041360   2.483018
                   11         12
    11  H    0.000000
    12  H    2.367914   0.000000
 Symmetry turned off by external request.
 Stoichiometry    C3H6O3
 Framework group  C1[X(C3H6O3)]
 Deg. of freedom    30
 Full point group                 C1      NOp   1
 Rotational constants (GHZ):          10.3443473           1.6185634           1.4834836
 Standard basis: 6-31+G(d) (6D, 7F)
   126 basis functions,   216 primitive gaussians,   126 cartesian basis functions
    24 alpha electrons       24 beta electrons
       nuclear repulsion energy       233.7766261096 Hartrees.
 NAtoms=   12 NActive=   12 NUniq=   12 SFac= 1.00D+00 NAtFMM=   60 NAOKFM=F Big=F
 Integral buffers will be    131072 words long.
 Raffenetti 2 integral format.
 Two-electron integral symmetry is turned off.
 One-electron integrals computed using PRISM.
 NBasis=   126 RedAO= T EigKep=  7.75D-05  NBF=   126
 NBsUse=   126 1.00D-06 EigRej= -1.00D+00 NBFU=   126
 Initial guess from the checkpoint file:  "/scratch/bell/zhao922/YARP/paper-example/KHP-network/pp_0/IRC-folder/Gau-37799.chk"
 B after Tr=    -0.001004    0.000048    0.001851
         Rot=    1.000000   -0.000151    0.000047   -0.000005 Ang=  -0.02 deg.
 ExpMin= 4.38D-02 ExpMax= 5.48D+03 ExpMxC= 8.25D+02 IAcc=3 IRadAn=         5 AccDes= 0.00D+00
 Harris functional with IExCor=  402 and IRadAn=       5 diagonalized for initial guess.
 HarFok:  IExCor=  402 AccDes= 0.00D+00 IRadAn=         5 IDoV= 1 UseB2=F ITyADJ=14
 ICtDFT=  3500011 ScaDFX=  1.000000  1.000000  1.000000  1.000000
 FoFCou: FMM=F IPFlag=           0 FMFlag=      100000 FMFlg1=           0
         NFxFlg=           0 DoJE=T BraDBF=F KetDBF=T FulRan=T
         wScrn=  0.000000 ICntrl=       500 IOpCl=  0 I1Cent=   200000004 NGrid=           0
         NMat0=    1 NMatS0=      1 NMatT0=    0 NMatD0=    1 NMtDS0=    0 NMtDT0=    0
 Symmetry not used in FoFCou.
 Keep R1 ints in memory in canonical form, NReq=47237219.
 Requested convergence on RMS density matrix=1.00D-08 within 128 cycles.
 Requested convergence on MAX density matrix=1.00D-06.
 Requested convergence on             energy=1.00D-06.
 No special actions if energy rises.
 SCF Done:  E(RB3LYP) =  -343.369861494     A.U. after   13 cycles
            NFock= 13  Conv=0.28D-08     -V/T= 2.0089
 DoSCS=F DFT=T ScalE2(SS,OS)=  1.000000  1.000000
 Range of M.O.s used for correlation:     1   126
 NBasis=   126 NAE=    24 NBE=    24 NFC=     0 NFV=     0
 NROrb=    126 NOA=    24 NOB=    24 NVA=   102 NVB=   102

 **** Warning!!: The largest alpha MO coefficient is  0.32478180D+02

 Symmetrizing basis deriv contribution to polar:
 IMax=3 JMax=2 DiffMx= 0.00D+00
 G2DrvN: will do    13 centers at a time, making    1 passes.
 Calling FoFCou, ICntrl=  3107 FMM=F I1Cent=   0 AccDes= 0.00D+00.
 End of G2Drv F.D. properties file   721 does not exist.
 End of G2Drv F.D. properties file   722 does not exist.
 End of G2Drv F.D. properties file   788 does not exist.
          IDoAtm=111111111111
          Differentiating once with respect to nuclear coordinates.
 Keep R1 ints in memory in canonical form, NReq=47193241.
          There are    39 degrees of freedom in the 1st order CPHF.  IDoFFX=6 NUNeed=     0.
     33 vectors produced by pass  0 Test12= 6.28D-15 2.56D-09 XBig12= 2.08D-01 1.94D-01.
 AX will form    33 AO Fock derivatives at one time.
     33 vectors produced by pass  1 Test12= 6.28D-15 2.56D-09 XBig12= 5.65D-02 7.51D-02.
     33 vectors produced by pass  2 Test12= 6.28D-15 2.56D-09 XBig12= 1.38D-03 6.56D-03.
     33 vectors produced by pass  3 Test12= 6.28D-15 2.56D-09 XBig12= 9.16D-06 4.29D-04.
     33 vectors produced by pass  4 Test12= 6.28D-15 2.56D-09 XBig12= 1.96D-08 1.91D-05.
     28 vectors produced by pass  5 Test12= 6.28D-15 2.56D-09 XBig12= 2.04D-11 5.21D-07.
      5 vectors produced by pass  6 Test12= 6.28D-15 2.56D-09 XBig12= 1.93D-14 1.51D-08.
 InvSVY:  IOpt=1 It=  1 EMax= 1.44D-15
 Solved reduced A of dimension   198 with    33 vectors.
 End of Minotr F.D. properties file   721 does not exist.
 End of Minotr F.D. properties file   722 does not exist.
 End of Minotr F.D. properties file   788 does not exist.
 Calling FoFJK, ICntrl=    100127 FMM=F ISym2X=0 I1Cent= 0 IOpClX= 0 NMat=1 NMatS=1 NMatT=0.
 -------------------------------------------------------------------
 Center     Atomic                   Forces (Hartrees/Bohr)
 Number     Number              X              Y              Z
 -------------------------------------------------------------------
      1        6           0.037599997    0.010891238   -0.067477288
      2        6          -0.018182232   -0.011127455   -0.013554732
      3        6           0.003336895   -0.003614085    0.004161301
      4        8           0.004999221    0.000744350    0.015774844
      5        8           0.001782384   -0.000344723    0.003118856
      6        8           0.001457327    0.001958187   -0.000400861
      7        1           0.000527907    0.000396707   -0.000096625
      8        1          -0.003691144    0.000968202    0.003204148
      9        1          -0.010006170    0.003779758    0.028772100
     10        1           0.000137058   -0.000136718    0.000352027
     11        1          -0.018521417   -0.002889637    0.027807817
     12        1           0.000560176   -0.000625825   -0.001661587
 -------------------------------------------------------------------
 Cartesian Forces:  Max     0.067477288 RMS     0.015946584
 IRC-IRC-IRC-IRC-IRC-IRC-IRC-IRC-IRC-IRC-IRC-IRC-IRC-IRC-IRC-IRC-IRC-IRC
 Pt  5 Step number   1 out of a maximum of 100
 Modified Bulirsch-Stoer Extrapolation Cycles:
    EPS =    0.000010000000000
      PEZero:  N= 2 I= 1 D=  8.40D-04 Err=  4.79D-05
      PEZero:  N= 3 I= 2 D=  8.40D-04 Err=  3.18D-05
      PEZero:  N= 3 I= 1 D=  1.68D-03 Err=  1.54D-07
 Maximum DWI energy   std dev =  0.000013144 at pt    45
 Maximum DWI gradient std dev =  0.006892859 at pt    25
 CORRECTOR INTEGRATION CONVERGENCE:
   Recorrection delta-x convergence threshold:    0.010000
   Delta-x Convergence Met
 Point Number:   5          Path Number:   1
   CHANGE IN THE REACTION COORDINATE =    0.16114
   NET REACTION COORDINATE UP TO THIS POINT =    0.80564
  # OF POINTS ALONG THE PATH =   5
  # OF STEPS =   1

 Calculating another point on the path.
 IRC-IRC-IRC-IRC-IRC-IRC-IRC-IRC-IRC-IRC-IRC-IRC-IRC-IRC-IRC-IRC-IRC-IRC
                          Input orientation:                          
 ---------------------------------------------------------------------
 Center     Atomic      Atomic             Coordinates (Angstroms)
 Number     Number       Type             X           Y           Z
 ---------------------------------------------------------------------
      1          6           0       -0.337048    0.062992    0.264565
      2          6           0        0.789021    0.889362    0.065660
      3          6           0        2.051798    0.238448   -0.136363
      4          8           0       -1.489343    0.437557   -0.332630
      5          8           0       -2.590047   -0.477492    0.056825
      6          8           0        2.248802   -0.978840   -0.040706
      7          1           0       -2.992397   -0.609563   -0.822807
      8          1           0       -0.165907   -1.006296    0.392041
      9          1           0       -0.896966    0.177494    1.912059
     10          1           0        2.891682    0.913578   -0.400126
     11          1           0       -0.266813    0.551927    1.678154
     12          1           0        0.671195    1.962887   -0.044330
 ---------------------------------------------------------------------
                    Distance matrix (angstroms):
                    1          2          3          4          5
     1  C    0.000000
     2  C    1.410844   0.000000
     3  C    2.428604   1.434960   0.000000
     4  O    1.350823   2.356629   3.552161   0.000000
     5  O    2.326216   3.645061   4.700704   1.483422   0.000000
     6  O    2.804501   2.373279   1.236831   4.008132   4.865729
     7  H    2.947131   4.163564   5.160836   1.896287   0.976258
     8  H    1.090375   2.147540   2.597463   2.088383   2.503689
     9  H    1.743805   2.599711   3.590955   2.336059   2.595655
    10  H    3.404410   2.153771   1.109403   4.407327   5.673908
    11  H    1.497406   1.956728   2.960862   2.356037   3.014270
    12  H    2.172917   1.085558   2.210933   2.660389   4.074480
                    6          7          8          9         10
     6  O    0.000000
     7  H    5.312081   0.000000
     8  H    2.453332   3.101983   0.000000
     9  H    3.878950   3.534088   2.060645   0.000000
    10  H    2.030695   6.092700   3.696254   4.499096   0.000000
    11  H    3.409699   3.877198   2.022950   0.769418   3.798175
    12  H    3.338055   4.543724   3.115639   3.078021   2.481573
                   11         12
    11  H    0.000000
    12  H    2.416117   0.000000
 Symmetry turned off by external request.
 Stoichiometry    C3H6O3
 Framework group  C1[X(C3H6O3)]
 Deg. of freedom    30
 Full point group                 C1      NOp   1
 Rotational constants (GHZ):          10.3021034           1.6174927           1.4839312
 Standard basis: 6-31+G(d) (6D, 7F)
   126 basis functions,   216 primitive gaussians,   126 cartesian basis functions
    24 alpha electrons       24 beta electrons
       nuclear repulsion energy       233.6015156340 Hartrees.
 NAtoms=   12 NActive=   12 NUniq=   12 SFac= 1.00D+00 NAtFMM=   60 NAOKFM=F Big=F
 Integral buffers will be    131072 words long.
 Raffenetti 2 integral format.
 Two-electron integral symmetry is turned off.
 One-electron integrals computed using PRISM.
 NBasis=   126 RedAO= T EigKep=  7.52D-05  NBF=   126
 NBsUse=   126 1.00D-06 EigRej= -1.00D+00 NBFU=   126
 Initial guess from the checkpoint file:  "/scratch/bell/zhao922/YARP/paper-example/KHP-network/pp_0/IRC-folder/Gau-37799.chk"
 B after Tr=    -0.000969    0.000072    0.001859
         Rot=    1.000000   -0.000128    0.000041   -0.000003 Ang=  -0.02 deg.
 ExpMin= 4.38D-02 ExpMax= 5.48D+03 ExpMxC= 8.25D+02 IAcc=3 IRadAn=         5 AccDes= 0.00D+00
 Harris functional with IExCor=  402 and IRadAn=       5 diagonalized for initial guess.
 HarFok:  IExCor=  402 AccDes= 0.00D+00 IRadAn=         5 IDoV= 1 UseB2=F ITyADJ=14
 ICtDFT=  3500011 ScaDFX=  1.000000  1.000000  1.000000  1.000000
 FoFCou: FMM=F IPFlag=           0 FMFlag=      100000 FMFlg1=           0
         NFxFlg=           0 DoJE=T BraDBF=F KetDBF=T FulRan=T
         wScrn=  0.000000 ICntrl=       500 IOpCl=  0 I1Cent=   200000004 NGrid=           0
         NMat0=    1 NMatS0=      1 NMatT0=    0 NMatD0=    1 NMtDS0=    0 NMtDT0=    0
 Symmetry not used in FoFCou.
 Keep R1 ints in memory in canonical form, NReq=47237219.
 Requested convergence on RMS density matrix=1.00D-08 within 128 cycles.
 Requested convergence on MAX density matrix=1.00D-06.
 Requested convergence on             energy=1.00D-06.
 No special actions if energy rises.
 SCF Done:  E(RB3LYP) =  -343.378111821     A.U. after   12 cycles
            NFock= 12  Conv=0.94D-08     -V/T= 2.0089
 DoSCS=F DFT=T ScalE2(SS,OS)=  1.000000  1.000000
 Range of M.O.s used for correlation:     1   126
 NBasis=   126 NAE=    24 NBE=    24 NFC=     0 NFV=     0
 NROrb=    126 NOA=    24 NOB=    24 NVA=   102 NVB=   102

 **** Warning!!: The largest alpha MO coefficient is  0.31867150D+02

 Symmetrizing basis deriv contribution to polar:
 IMax=3 JMax=2 DiffMx= 0.00D+00
 G2DrvN: will do    13 centers at a time, making    1 passes.
 Calling FoFCou, ICntrl=  3107 FMM=F I1Cent=   0 AccDes= 0.00D+00.
 End of G2Drv F.D. properties file   721 does not exist.
 End of G2Drv F.D. properties file   722 does not exist.
 End of G2Drv F.D. properties file   788 does not exist.
          IDoAtm=111111111111
          Differentiating once with respect to nuclear coordinates.
 Keep R1 ints in memory in canonical form, NReq=47193241.
          There are    39 degrees of freedom in the 1st order CPHF.  IDoFFX=6 NUNeed=     0.
     33 vectors produced by pass  0 Test12= 6.28D-15 2.56D-09 XBig12= 1.99D-01 1.80D-01.
 AX will form    33 AO Fock derivatives at one time.
     33 vectors produced by pass  1 Test12= 6.28D-15 2.56D-09 XBig12= 5.64D-02 7.40D-02.
     33 vectors produced by pass  2 Test12= 6.28D-15 2.56D-09 XBig12= 1.32D-03 6.16D-03.
     33 vectors produced by pass  3 Test12= 6.28D-15 2.56D-09 XBig12= 8.57D-06 4.18D-04.
     33 vectors produced by pass  4 Test12= 6.28D-15 2.56D-09 XBig12= 1.71D-08 1.75D-05.
     28 vectors produced by pass  5 Test12= 6.28D-15 2.56D-09 XBig12= 1.77D-11 5.50D-07.
      5 vectors produced by pass  6 Test12= 6.28D-15 2.56D-09 XBig12= 1.66D-14 1.52D-08.
 InvSVY:  IOpt=1 It=  1 EMax= 1.44D-15
 Solved reduced A of dimension   198 with    33 vectors.
 End of Minotr F.D. properties file   721 does not exist.
 End of Minotr F.D. properties file   722 does not exist.
 End of Minotr F.D. properties file   788 does not exist.
 Calling FoFJK, ICntrl=    100127 FMM=F ISym2X=0 I1Cent= 0 IOpClX= 0 NMat=1 NMatS=1 NMatT=0.
 -------------------------------------------------------------------
 Center     Atomic                   Forces (Hartrees/Bohr)
 Number     Number              X              Y              Z
 -------------------------------------------------------------------
      1        6           0.035821561    0.008821063   -0.068191101
      2        6          -0.019323795   -0.010621297   -0.012135030
      3        6           0.004374140   -0.004465537    0.005010718
      4        8           0.003640667    0.001444287    0.015498983
      5        8           0.003014777    0.000051015    0.003386770
      6        8           0.001675350    0.002609351   -0.000545584
      7        1           0.000627271    0.000473922   -0.000093924
      8        1          -0.003606189    0.001026817    0.002957369
      9        1          -0.010789640    0.003137799    0.028525700
     10        1           0.000148004   -0.000165988    0.000326140
     11        1          -0.016033437   -0.001600299    0.027455843
     12        1           0.000451292   -0.000711132   -0.002195884
 -------------------------------------------------------------------
 Cartesian Forces:  Max     0.068191101 RMS     0.015791408
 IRC-IRC-IRC-IRC-IRC-IRC-IRC-IRC-IRC-IRC-IRC-IRC-IRC-IRC-IRC-IRC-IRC-IRC
 Pt  6 Step number   1 out of a maximum of 100
 Modified Bulirsch-Stoer Extrapolation Cycles:
    EPS =    0.000010000000000
      PEZero:  N= 2 I= 1 D=  8.40D-04 Err=  3.47D-05
      PEZero:  N= 3 I= 2 D=  8.40D-04 Err=  2.31D-05
      PEZero:  N= 3 I= 1 D=  1.68D-03 Err=  9.85D-08
 Maximum DWI energy   std dev =  0.000008211 at pt    34
 Maximum DWI gradient std dev =  0.004705699 at pt    47
 CORRECTOR INTEGRATION CONVERGENCE:
   Recorrection delta-x convergence threshold:    0.010000
   Delta-x Convergence Met
 Point Number:   6          Path Number:   1
   CHANGE IN THE REACTION COORDINATE =    0.16118
   NET REACTION COORDINATE UP TO THIS POINT =    0.96682
  # OF POINTS ALONG THE PATH =   6
  # OF STEPS =   1

 Calculating another point on the path.
 IRC-IRC-IRC-IRC-IRC-IRC-IRC-IRC-IRC-IRC-IRC-IRC-IRC-IRC-IRC-IRC-IRC-IRC
                          Input orientation:                          
 ---------------------------------------------------------------------
 Center     Atomic      Atomic             Coordinates (Angstroms)
 Number     Number       Type             X           Y           Z
 ---------------------------------------------------------------------
      1          6           0       -0.332095    0.064098    0.254820
      2          6           0        0.786221    0.887892    0.064017
      3          6           0        2.052486    0.237765   -0.135586
      4          8           0       -1.489029    0.437755   -0.330985
      5          8           0       -2.589655   -0.477467    0.057202
      6          8           0        2.248996   -0.978535   -0.040771
      7          1           0       -2.991255   -0.608698   -0.822959
      8          1           0       -0.171910   -1.004580    0.396865
      9          1           0       -0.915049    0.182777    1.959851
     10          1           0        2.891950    0.913279   -0.399577
     11          1           0       -0.292879    0.549685    1.724586
     12          1           0        0.671837    1.961630   -0.048517
 ---------------------------------------------------------------------
                    Distance matrix (angstroms):
                    1          2          3          4          5
     1  C    0.000000
     2  C    1.402025   0.000000
     3  C    2.422562   1.437336   0.000000
     4  O    1.349549   2.352746   3.552535   0.000000
     5  O    2.330005   3.641537   4.700872   1.483138   0.000000
     6  O    2.799373   2.373656   1.235715   4.007859   4.865513
     7  H    2.947100   4.158827   5.160263   1.895729   0.976313
     8  H    1.089913   2.147150   2.602857   2.084443   2.497742
     9  H    1.805837   2.643046   3.633200   2.375373   2.619218
    10  H    3.397618   2.156306   1.109373   4.407244   5.673695
    11  H    1.548400   2.009062   3.009696   2.380898   3.018343
    12  H    2.168068   1.085662   2.210314   2.659196   4.074028
                    6          7          8          9         10
     6  O    0.000000
     7  H    5.311199   0.000000
     8  H    2.460282   3.097322   0.000000
     9  H    3.919479   3.561053   2.098808   0.000000
    10  H    2.030047   6.091615   3.701315   4.538036   0.000000
    11  H    3.451531   3.887554   2.047734   0.759649   3.845439
    12  H    3.336475   4.541431   3.115875   3.117061   2.480158
                   11         12
    11  H    0.000000
    12  H    2.463364   0.000000
 Symmetry turned off by external request.
 Stoichiometry    C3H6O3
 Framework group  C1[X(C3H6O3)]
 Deg. of freedom    30
 Full point group                 C1      NOp   1
 Rotational constants (GHZ):          10.2578671           1.6163315           1.4843586
 Standard basis: 6-31+G(d) (6D, 7F)
   126 basis functions,   216 primitive gaussians,   126 cartesian basis functions
    24 alpha electrons       24 beta electrons
       nuclear repulsion energy       233.4322044704 Hartrees.
 NAtoms=   12 NActive=   12 NUniq=   12 SFac= 1.00D+00 NAtFMM=   60 NAOKFM=F Big=F
 Integral buffers will be    131072 words long.
 Raffenetti 2 integral format.
 Two-electron integral symmetry is turned off.
 One-electron integrals computed using PRISM.
 NBasis=   126 RedAO= T EigKep=  7.30D-05  NBF=   126
 NBsUse=   126 1.00D-06 EigRej= -1.00D+00 NBFU=   126
 Initial guess from the checkpoint file:  "/scratch/bell/zhao922/YARP/paper-example/KHP-network/pp_0/IRC-folder/Gau-37799.chk"
 B after Tr=    -0.000935    0.000091    0.001854
         Rot=    1.000000   -0.000105    0.000036   -0.000001 Ang=  -0.01 deg.
 ExpMin= 4.38D-02 ExpMax= 5.48D+03 ExpMxC= 8.25D+02 IAcc=3 IRadAn=         5 AccDes= 0.00D+00
 Harris functional with IExCor=  402 and IRadAn=       5 diagonalized for initial guess.
 HarFok:  IExCor=  402 AccDes= 0.00D+00 IRadAn=         5 IDoV= 1 UseB2=F ITyADJ=14
 ICtDFT=  3500011 ScaDFX=  1.000000  1.000000  1.000000  1.000000
 FoFCou: FMM=F IPFlag=           0 FMFlag=      100000 FMFlg1=           0
         NFxFlg=           0 DoJE=T BraDBF=F KetDBF=T FulRan=T
         wScrn=  0.000000 ICntrl=       500 IOpCl=  0 I1Cent=   200000004 NGrid=           0
         NMat0=    1 NMatS0=      1 NMatT0=    0 NMatD0=    1 NMtDS0=    0 NMtDT0=    0
 Symmetry not used in FoFCou.
 Keep R1 ints in memory in canonical form, NReq=47237219.
 Requested convergence on RMS density matrix=1.00D-08 within 128 cycles.
 Requested convergence on MAX density matrix=1.00D-06.
 Requested convergence on             energy=1.00D-06.
 No special actions if energy rises.
 SCF Done:  E(RB3LYP) =  -343.386052126     A.U. after   12 cycles
            NFock= 12  Conv=0.43D-08     -V/T= 2.0089
 DoSCS=F DFT=T ScalE2(SS,OS)=  1.000000  1.000000
 Range of M.O.s used for correlation:     1   126
 NBasis=   126 NAE=    24 NBE=    24 NFC=     0 NFV=     0
 NROrb=    126 NOA=    24 NOB=    24 NVA=   102 NVB=   102

 **** Warning!!: The largest alpha MO coefficient is  0.31108461D+02

 Symmetrizing basis deriv contribution to polar:
[...]
  10                    0.92812  -0.35849   0.90404   1.62148   0.98301
  11                    0.92408  -0.38394   0.91514   1.60777   1.00383
  12                    0.91956  -0.40749   0.92609   1.59257   1.02528
  13                    0.91468  -0.42888   0.93691   1.57599   1.04707
  14                    0.90958  -0.44796   0.94761   1.55818   1.06892
  15                    0.90446  -0.46456   0.95826   1.53906   1.09059
  16                    0.89956  -0.47807   0.96914   1.51794   1.11202
  17                    0.89532  -0.48697   0.98079   1.49321   1.13324
  18                    0.89242  -0.48868   0.99374   1.46241   1.15400
  19                    0.89148  -0.48148   1.00743   1.42398   1.17331
  20                    0.89230  -0.46764   1.01930   1.37919   1.18995
  21                    0.89401  -0.45219   1.02585   1.33090   1.20358
  22                    0.89581  -0.43896   1.02387   1.28158   1.21474
  23                    0.89732  -0.42949   1.01112   1.23305   1.22412
  24                    0.89851  -0.42360   0.98678   1.18644   1.23206
  25                    0.89950  -0.42036   0.95157   1.14232   1.23843
  26                    0.90046  -0.41875   0.90724   1.10071   1.24276
  27                    0.90147  -0.41798   0.85581   1.06132   1.24461
  28                    0.90258  -0.41754   0.79908   1.02374   1.24390
  29                    0.90377  -0.41713   0.73852   0.98760   1.24111
  30                    0.90501  -0.41659   0.67516   0.95258   1.23752
  31                    0.90627  -0.41586   0.60982   0.91848   1.23525
  32                    0.90749  -0.41493   0.54324   0.88526   1.23675
  33                    0.90861  -0.41386   0.47632   0.85296   1.24376
  34                    0.90962  -0.41269   0.40991   0.82164   1.25641
  35                    0.91051  -0.41149   0.34454   0.79124   1.27362
  36                    0.91129  -0.41027   0.28044   0.76165   1.29404
  37                    0.91197  -0.40906   0.21769   0.73282   1.31673
  38                    0.91256  -0.40787   0.15636   0.70479   1.34122
  39                    0.91306  -0.40671   0.09659   0.67772   1.36753
  40                    0.91347  -0.40560   0.03862   0.65196   1.39604
  41                    0.91376  -0.40458  -0.01687   0.62828   1.42790
  42                    0.91400  -0.40361  -0.07058   0.60631   1.46220
  43                    0.91411  -0.40275  -0.12022   0.58784   1.50070
  44                    0.91411  -0.40197  -0.16490   0.57331   1.54257
  45                    0.91401  -0.40129  -0.20384   0.56294   1.58675
  46                    0.91383  -0.40068  -0.23734   0.55620   1.63213
  47                    0.91358  -0.40012  -0.26656   0.55210   1.67811
  48                    0.91328  -0.39957  -0.29271   0.54981   1.72454
  49                    0.91296  -0.39897  -0.31663   0.54875   1.77139
  50                    0.91263  -0.39825  -0.33890   0.54858   1.81867
  51                    0.91231  -0.39731  -0.35986   0.54907   1.86635
  52                    0.91202  -0.39605  -0.37977   0.55005   1.91437
  53                    0.91178  -0.39434  -0.39881   0.55140   1.96263
  54                    0.91161  -0.39200  -0.41711   0.55299   2.01101
  55                    0.91156  -0.38886  -0.43477   0.55472   2.05935
  56                    0.91165  -0.38472  -0.45184   0.55649   2.10747
  57                    0.91193  -0.37935  -0.46839   0.55823   2.15519
  58                    0.91244  -0.37257  -0.48441   0.55985   2.20232
  59                    0.91322  -0.36420  -0.49993   0.56130   2.24862
  60                    0.91428  -0.35413  -0.51490   0.56251   2.29387
  61                    0.91564  -0.34233  -0.52929   0.56344   2.33783
  62                    0.91726  -0.32884  -0.54307   0.56409   2.38030
  63                    0.91910  -0.31379  -0.55618   0.56444   2.42115
  64                    0.92109  -0.29735  -0.56861   0.56451   2.46033
  65                    0.92319  -0.27974  -0.58037   0.56430   2.49785
  66                    0.92534  -0.26116  -0.59145   0.56386   2.53379
  67                    0.92749  -0.24184  -0.60188   0.56322   2.56829
  68                    0.92961  -0.22196  -0.61171   0.56238   2.60153
  69                    0.93168  -0.20171  -0.62097   0.56138   2.63368
  70                    0.93370  -0.18126  -0.62971   0.56023   2.66501
  71                    0.93566  -0.16078  -0.63798   0.55895   2.69579
  72                    0.93758  -0.14046  -0.64583   0.55756   2.72638
  73                    0.93947  -0.12050  -0.65333   0.55605   2.75712
  74                    0.94133  -0.10115  -0.66052   0.55441   2.78840
  75                    0.94320  -0.08271  -0.66747   0.55260   2.82072
  76                    0.94508  -0.06559  -0.67424   0.55060   2.85473
  77                    0.94699  -0.05037  -0.68090   0.54836   2.89128
  78                    0.94893  -0.03780  -0.68750   0.54580   2.93143
  79                    0.95087  -0.02880  -0.69411   0.54278   2.97632
  80                    0.95273  -0.02436  -0.70077   0.53912   3.02706
  81                    0.95439  -0.02494  -0.70754   0.53464   3.08432
                          X12       Y12       Z12
   1                    0.55909   1.41444  -0.86226
   2                    0.55427   1.42153  -0.85072
   3                    0.54933   1.42965  -0.83827
   4                    0.54428   1.43893  -0.82476
   5                    0.53916   1.44955  -0.81005
   6                    0.53406   1.46170  -0.79400
   7                    0.52915   1.47558  -0.77650
   8                    0.52475   1.49128  -0.75761
   9                    0.52125   1.50874  -0.73752
  10                    0.51906   1.52778  -0.71643
  11                    0.51853   1.54819  -0.69449
  12                    0.51987   1.56968  -0.67178
  13                    0.52314   1.59188  -0.64844
  14                    0.52827   1.61443  -0.62462
  15                    0.53501   1.63712  -0.60034
  16                    0.54301   1.66018  -0.57527
  17                    0.55180   1.68434  -0.54856
  18                    0.56076   1.71072  -0.51903
  19                    0.56941   1.73977  -0.48613
  20                    0.57793   1.77058  -0.45058
  21                    0.58698   1.80168  -0.41339
  22                    0.59692   1.83168  -0.37536
  23                    0.60746   1.85933  -0.33735
  24                    0.61790   1.88362  -0.30043
  25                    0.62752   1.90403  -0.26560
  26                    0.63585   1.92058  -0.23348
  27                    0.64275   1.93365  -0.20429
  28                    0.64827   1.94374  -0.17800
  29                    0.65257   1.95137  -0.15445
  30                    0.65586   1.95700  -0.13350
  31                    0.65832   1.96101  -0.11504
  32                    0.66012   1.96375  -0.09907
  33                    0.66143   1.96551  -0.08559
  34                    0.66237   1.96659  -0.07445
  35                    0.66306   1.96719  -0.06535
  36                    0.66362   1.96749  -0.05795
  37                    0.66409   1.96760  -0.05196
  38                    0.66453   1.96757  -0.04716
  39                    0.66498   1.96744  -0.04342
  40                    0.66547   1.96723  -0.04064
  41                    0.66605   1.96694  -0.03885
  42                    0.66671   1.96663  -0.03751
  43                    0.66751   1.96621  -0.03712
  44                    0.66842   1.96564  -0.03757
  45                    0.66939   1.96490  -0.03891
  46                    0.67035   1.96398  -0.04115
  47                    0.67119   1.96288  -0.04435
  48                    0.67183   1.96162  -0.04853
  49                    0.67218   1.96023  -0.05375
  50                    0.67216   1.95871  -0.06007
  51                    0.67172   1.95707  -0.06753
  52                    0.67081   1.95533  -0.07614
  53                    0.66945   1.95347  -0.08587
  54                    0.66766   1.95149  -0.09659
  55                    0.66553   1.94934  -0.10813
  56                    0.66315   1.94701  -0.12018
  57                    0.66066   1.94447  -0.13238
  58                    0.65819   1.94175  -0.14430
  59                    0.65587   1.93889  -0.15548
  60                    0.65381   1.93598  -0.16550
  61                    0.65210   1.93311  -0.17408
  62                    0.65081   1.93037  -0.18105
  63                    0.64995   1.92783  -0.18645
  64                    0.64955   1.92550  -0.19046
  65                    0.64959   1.92340  -0.19332
  66                    0.65004   1.92150  -0.19532
  67                    0.65087   1.91979  -0.19670
  68                    0.65202   1.91822  -0.19766
  69                    0.65344   1.91678  -0.19834
  70                    0.65506   1.91544  -0.19881
  71                    0.65682   1.91416  -0.19914
  72                    0.65864   1.91293  -0.19937
  73                    0.66044   1.91171  -0.19950
  74                    0.66216   1.91047  -0.19955
  75                    0.66372   1.90919  -0.19957
  76                    0.66505   1.90784  -0.19957
  77                    0.66608   1.90640  -0.19961
  78                    0.66677   1.90487  -0.19978
  79                    0.66710   1.90325  -0.20024
  80                    0.66710   1.90160  -0.20129
  81                    0.66690   1.89998  -0.20326
 --------------------------------------------------------------------------
 
 Total number of points:                   80
 Total number of gradient calculations:    81
 Total number of Hessian calculations:     81
 IRC-IRC-IRC-IRC-IRC-IRC-IRC-IRC-IRC-IRC-IRC-IRC-IRC-IRC-IRC-IRC-IRC-IRC
                          Input orientation:                          
 ---------------------------------------------------------------------
 Center     Atomic      Atomic             Coordinates (Angstroms)
 Number     Number       Type             X           Y           Z
 ---------------------------------------------------------------------
      1          6           0       -0.391264   -0.096007    0.358269
      2          6           0        0.746717    0.886212    0.086799
      3          6           0        2.106483    0.236751   -0.048801
      4          8           0       -1.545748    0.479510   -0.261286
      5          8           0       -2.658976   -0.417165    0.012444
      6          8           0        2.312248   -0.958484   -0.066865
      7          1           0       -2.847309   -0.747056   -0.885489
      8          1           0       -0.175445   -1.074956   -0.083674
      9          1           0       -0.574706   -0.223894    1.431305
     10          1           0        2.951813    0.950444   -0.155707
     11          1           0        0.807717    1.675648    0.848095
     12          1           0        0.559038    1.414387   -0.862313
 ---------------------------------------------------------------------
                    Distance matrix (angstroms):
                    1          2          3          4          5
     1  C    0.000000
     2  C    1.527564   0.000000
     3  C    2.552485   1.512994   0.000000
     4  O    1.431049   2.354137   3.666452   0.000000
     5  O    2.316302   3.647337   4.810505   1.455415   0.000000
     6  O    2.869423   2.424336   1.212952   4.121864   5.001239
     7  H    2.828949   4.065702   5.119374   1.894243   0.974977
     8  H    1.095551   2.173850   2.632298   2.079818   2.570964
     9  H    1.096090   2.187736   3.097045   2.074262   2.528775
    10  H    3.540536   2.219320   1.111471   4.523381   5.777506
    11  H    2.194595   1.098408   2.135800   2.863611   4.134748
    12  H    2.161987   1.102273   2.107894   2.380200   3.804655
                    6          7          8          9         10
     6  O    0.000000
     7  H    5.228373   0.000000
     8  H    2.490475   2.808787   0.000000
     9  H    3.334463   3.287241   1.782941   0.000000
    10  H    2.015178   6.086370   3.726550   4.041536   0.000000
    11  H    3.168504   4.715297   3.066044   2.420638   2.476022
    12  H    3.055651   4.034300   2.709719   3.038096   2.537697
                   11         12
    11  H    0.000000
    12  H    1.748025   0.000000
 Symmetry turned off by external request.
 Stoichiometry    C3H6O3
 Framework group  C1[X(C3H6O3)]
 Deg. of freedom    30
 Full point group                 C1      NOp   1
 Rotational constants (GHZ):          11.0241392           1.5584430           1.4203740

 **********************************************************************

            Population analysis using the SCF Density.

 **********************************************************************

 Alpha  occ. eigenvalues --  -19.22490 -19.22238 -19.17788 -10.30311 -10.25216
 Alpha  occ. eigenvalues --  -10.22373  -1.13163  -1.07147  -0.93190  -0.79135
 Alpha  occ. eigenvalues --   -0.67039  -0.58414  -0.54859  -0.51821  -0.48428
 Alpha  occ. eigenvalues --   -0.47488  -0.45065  -0.43716  -0.41788  -0.38042
 Alpha  occ. eigenvalues --   -0.37556  -0.32057  -0.28223  -0.27831
 Alpha virt. eigenvalues --   -0.04845  -0.00611   0.00306   0.01085   0.03196
 Alpha virt. eigenvalues --    0.03695   0.04963   0.06843   0.07401   0.08201
 Alpha virt. eigenvalues --    0.08700   0.11187   0.12472   0.13194   0.14210
 Alpha virt. eigenvalues --    0.16572   0.18182   0.19433   0.19929   0.20904
 Alpha virt. eigenvalues --    0.22227   0.23743   0.24599   0.25183   0.25305
 Alpha virt. eigenvalues --    0.26690   0.27661   0.28858   0.30520   0.31989
 Alpha virt. eigenvalues --    0.32164   0.34958   0.36549   0.38548   0.40262
 Alpha virt. eigenvalues --    0.45231   0.62428   0.65166   0.66280   0.68236
 Alpha virt. eigenvalues --    0.69209   0.70513   0.79093   0.83334   0.83938
 Alpha virt. eigenvalues --    0.91237   0.94275   0.95304   1.00359   1.04025
 Alpha virt. eigenvalues --    1.06244   1.08189   1.09617   1.13768   1.15798
 Alpha virt. eigenvalues --    1.20887   1.22332   1.23382   1.26214   1.27878
 Alpha virt. eigenvalues --    1.30141   1.31156   1.38001   1.48545   1.51014
 Alpha virt. eigenvalues --    1.52624   1.55372   1.60640   1.63255   1.67524
 Alpha virt. eigenvalues --    1.70440   1.73138   1.77278   1.78647   1.84336
 Alpha virt. eigenvalues --    1.86876   1.91363   1.96176   2.02321   2.05276
 Alpha virt. eigenvalues --    2.08431   2.12770   2.20986   2.28646   2.32730
 Alpha virt. eigenvalues --    2.36464   2.40659   2.45584   2.52625   2.57061
 Alpha virt. eigenvalues --    2.59205   2.71389   2.85714   2.90198   3.04151
 Alpha virt. eigenvalues --    3.17221   3.93840   4.11422   4.18366   4.28685
 Alpha virt. eigenvalues --    4.34717   4.53104
          Condensed to atoms (all electrons):
               1          2          3          4          5          6
     1  C    5.368674  -0.149562   0.027401   0.156899   0.007720   0.060264
     2  C   -0.149562   6.455277  -0.034775  -0.066541  -0.034775  -0.191344
     3  C    0.027401  -0.034775   4.968452   0.016360   0.001575   0.472782
     4  O    0.156899  -0.066541   0.016360   8.087842   0.080937  -0.000805
     5  O    0.007720  -0.034775   0.001575   0.080937   8.280196  -0.000781
     6  O    0.060264  -0.191344   0.472782  -0.000805  -0.000781   8.081545
     7  H    0.003580   0.000129   0.000527  -0.035426   0.193601   0.000003
     8  H    0.433927  -0.081254  -0.000626  -0.056091   0.007280   0.002543
     9  H    0.384795  -0.031128   0.006881  -0.034734  -0.009102  -0.001114
    10  H    0.038884  -0.188892   0.419633  -0.000412   0.000025  -0.062880
    11  H   -0.027960   0.364113  -0.033518   0.003470   0.000523   0.002185
    12  H   -0.033311   0.357867  -0.011682  -0.005694  -0.002098  -0.000690
               7          8          9         10         11         12
     1  C    0.003580   0.433927   0.384795   0.038884  -0.027960  -0.033311
     2  C    0.000129  -0.081254  -0.031128  -0.188892   0.364113   0.357867
     3  C    0.000527  -0.000626   0.006881   0.419633  -0.033518  -0.011682
     4  O   -0.035426  -0.056091  -0.034734  -0.000412   0.003470  -0.005694
     5  O    0.193601   0.007280  -0.009102   0.000025   0.000523  -0.002098
     6  O    0.000003   0.002543  -0.001114  -0.062880   0.002185  -0.000690
     7  H    0.365801   0.002054  -0.000698  -0.000000   0.000002  -0.000033
     8  H    0.002054   0.517482  -0.043911   0.000268   0.003505  -0.001361
     9  H   -0.000698  -0.043911   0.526322  -0.000173  -0.006249   0.003353
    10  H   -0.000000   0.000268  -0.000173   0.627180   0.002296   0.000908
    11  H    0.000002   0.003505  -0.006249   0.002296   0.486208  -0.028111
    12  H   -0.000033  -0.001361   0.003353   0.000908  -0.028111   0.473898
 Mulliken charges:
               1
     1  C   -0.271312
     2  C   -0.399116
     3  C    0.166991
     4  O   -0.145806
     5  O   -0.525102
     6  O   -0.361708
     7  H    0.470459
     8  H    0.216185
     9  H    0.205758
    10  H    0.163162
    11  H    0.233537
    12  H    0.246952
 Sum of Mulliken charges =  -0.00000
 Mulliken charges with hydrogens summed into heavy atoms:
               1
     1  C    0.150630
     2  C    0.081373
     3  C    0.330153
     4  O   -0.145806
     5  O   -0.054643
     6  O   -0.361708
 APT charges:
               1
     1  C   -0.677852
     2  C   -0.670425
     3  C   -0.408361
     4  O   -0.153002
     5  O   -0.764584
     6  O   -0.273389
     7  H    0.680799
     8  H    0.365666
     9  H    0.434161
    10  H    0.555608
    11  H    0.484327
    12  H    0.427053
 Sum of APT charges =  -0.00000
 APT charges with hydrogens summed into heavy atoms:
               1
     1  C    0.121975
     2  C    0.240955
     3  C    0.147246
     4  O   -0.153002
     5  O   -0.083785
     6  O   -0.273389
 Electronic spatial extent (au):  <R**2>=            783.8497
 Charge=             -0.0000 electrons
 Dipole moment (field-independent basis, Debye):
    X=              0.3996    Y=              1.5118    Z=             -0.8334  Tot=              1.7719
 Quadrupole moment (field-independent basis, Debye-Ang):
   XX=            -40.5289   YY=            -37.1131   ZZ=            -33.4002
   XY=              9.2933   XZ=              4.2428   YZ=              1.6358
 Traceless Quadrupole moment (field-independent basis, Debye-Ang):
   XX=             -3.5148   YY=             -0.0991   ZZ=              3.6139
   XY=              9.2933   XZ=              4.2428   YZ=              1.6358
 Octapole moment (field-independent basis, Debye-Ang**2):
  XXX=            -15.4926  YYY=             -2.8691  ZZZ=             -2.4532  XYY=             -7.0349
  XXY=              4.1281  XXZ=            -14.1269  XZZ=             -6.5683  YZZ=             -2.2297
  YYZ=             -1.7028  XYZ=             -4.9380
 Hexadecapole moment (field-independent basis, Debye-Ang**3):
 XXXX=           -773.5036 YYYY=           -140.9801 ZZZZ=            -54.8308 XXXY=             57.7479
 XXXZ=             42.0549 YYYX=              5.8472 YYYZ=              2.4628 ZZZX=              1.5182
 ZZZY=              1.7464 XXYY=           -156.4221 XXZZ=           -122.6289 YYZZ=            -30.5236
 XXYZ=             11.3591 YYXZ=              3.4343 ZZXY=              3.3615
 N-N= 2.324295773832D+02 E-N=-1.269478764976D+03  KE= 3.403715056232D+02
  Exact polarizability:   0.000   0.000   0.000   0.000   0.000   0.000
 Approx polarizability:  71.312   2.620  77.819  -0.068  -0.723  52.758

 This type of calculation cannot be archived.


 The lyf so short, the craft so long to lerne.
                             -- Chaucer
 Job cpu time:       0 days  5 hours 39 minutes 47.5 seconds.
 Elapsed time:       0 days  0 hours 21 minutes 48.1 seconds.
 File lengths (MBytes):  RWF=     28 Int=      0 D2E=      0 Chk=      4 Scr=      1
 Normal termination of Gaussian 16 at Wed Dec 23 22:38:45 2020.
