 Entering Gaussian System, Link 0=g16
 Initial command:
 /apps/cent7/gaussian/g16-B.01/g16-haswell/g16/l1.exe "/scratch/bell/zhao922/YARP/paper-example/KHP-network/pp_0/IRC-folder/Gau-73428.inp" -scrdir="/scratch/bell/zhao922/YARP/paper-example/KHP-network/pp_0/IRC-folder/"
 Entering Link 1 = /apps/cent7/gaussian/g16-B.01/g16-haswell/g16/l1.exe PID=     73429.
  
 Copyright (c) 1988-2017, Gaussian, Inc.  All Rights Reserved.
  
 This is part of the Gaussian(R) 16 program.  It is based on
 the Gaussian(R) 09 system (copyright 2009, Gaussian, Inc.),
 the Gaussian(R) 03 system (copyright 2003, Gaussian, Inc.),
 the Gaussian(R) 98 system (copyright 1998, Gaussian, Inc.),
 the Gaussian(R) 94 system (copyright 1995, Gaussian, Inc.),
 the Gaussian 92(TM) system (copyright 1992, Gaussian, Inc.),
 the Gaussian 90(TM) system (copyright 1990, Gaussian, Inc.),
 the Gaussian 88(TM) system (copyright 1988, Gaussian, Inc.),
 the Gaussian 86(TM) system (copyright 1986, Carnegie Mellon
 University), and the Gaussian 82(TM) system (copyright 1983,
 Carnegie Mellon University). Gaussian is a federally registered
 trademark of Gaussian, Inc.
  
 This software contains proprietary and confidential information,
 including trade secrets, belonging to Gaussian, Inc.
  
 This software is provided under written license and may be
 used, copied, transmitted, or stored only in accord with that
 written license.
  
 The following legend is applicable only to US Government
 contracts under FAR:
  
                    RESTRICTED RIGHTS LEGEND
  
 Use, reproduction and disclosure by the US Government is
 subject to restrictions as set forth in subparagraphs (a)
 and (c) of the Commercial Computer Software - Restricted
 Rights clause in FAR 52.227-19.
  
 Gaussian, Inc.
 340 Quinnipiac St., Bldg. 40, Wallingford CT 06492
  
  
 ---------------------------------------------------------------
 Warning -- This program may not be used in any manner that
 competes with the business of Gaussian, Inc. or will provide
 assistance to any competitor of Gaussian, Inc.  The licensee
 of this program is prohibited from giving any competitor of
 Gaussian, Inc. access to this program.  By using this program,
 the user acknowledges that Gaussian, Inc. is engaged in the
 business of creating and licensing software in the field of
 computational chemistry and represents and warrants to the
 licensee that it is not a competitor of Gaussian, Inc. and that
 it will not use this program in any manner prohibited above.
 ---------------------------------------------------------------
  

 Cite this work as:
 Gaussian 16, Revision B.01,
 M. J. Frisch, G. W. Trucks, H. B. Schlegel, G. E. Scuseria, 
 M. A. Robb, J. R. Cheeseman, G. Scalmani, V. Barone, 
 G. A. Petersson, H. Nakatsuji, X. Li, M. Caricato, A. V. Marenich, 
 J. Bloino, B. G. Janesko, R. Gomperts, B. Mennucci, H. P. Hratchian, 
 J. V. Ortiz, A. F. Izmaylov, J. L. Sonnenberg, D. Williams-Young, 
 F. Ding, F. Lipparini, F. Egidi, J. Goings, B. Peng, A. Petrone, 
 T. Henderson, D. Ranasinghe, V. G. Zakrzewski, J. Gao, N. Rega, 
 G. Zheng, W. Liang, M. Hada, M. Ehara, K. Toyota, R. Fukuda, 
 J. Hasegawa, M. Ishida, T. Nakajima, Y. Honda, O. Kitao, H. Nakai, 
 T. Vreven, K. Throssell, J. A. Montgomery, Jr., J. E. Peralta, 
 F. Ogliaro, M. J. Bearpark, J. J. Heyd, E. N. Brothers, K. N. Kudin, 
 V. N. Staroverov, T. A. Keith, R. Kobayashi, J. Normand, 
 K. Raghavachari, A. P. Rendell, J. C. Burant, S. S. Iyengar, 
 J. Tomasi, M. Cossi, J. M. Millam, M. Klene, C. Adamo, R. Cammi, 
 J. W. Ochterski, R. L. Martin, K. Morokuma, O. Farkas, 
 J. B. Foresman, and D. J. Fox, Gaussian, Inc., Wallingford CT, 2016.
 
 ******************************************
 Gaussian 16:  ES64L-G16RevB.01 20-Dec-2017
                23-Dec-2020 
 ******************************************
 %NProcShared=16
 Will use up to   16 processors via shared memory.
 %Mem=6GB
 ----------------------------------------------------------------------
 # B3LYP/6-31+G* IRC=(CALCALL, maxpoints=40, StepSize=15, maxcyc=100, R
 eport=Cartesians)
 ----------------------------------------------------------------------
 1/6=100,10=4,18=10,26=3,38=1,39=15,42=40,44=3,71=1,129=10,172=1/1,23;
 2/12=2,17=6,18=5,29=1,40=1/2;
 3/5=1,6=6,7=11,11=2,25=1,30=1,71=2,74=-5,140=1/1,2,3;
 4//1;
 5/5=2,38=5/2;
 8/6=4,10=90,11=11/1;
 11/6=1,8=1,9=11,15=111,16=1/1,2,10;
 10/6=1,13=1/2;
 6/7=2,8=2,9=2,10=2,18=1,28=1/1;
 7/10=1,25=1/1,2,3,16;
 1/6=100,10=4,18=10,26=3,39=15,42=40,44=3,71=1,129=10/23(2);
 2/29=1/2;
 99/5=20/99;
 2/29=1/2;
 3/5=1,6=6,7=11,11=2,25=1,30=1,71=2,74=-5,140=1/1,2,3;
 4/5=5,16=3,69=1/1;
 5/5=2,38=5/2;
 8/6=4,10=90,11=11/1;
 11/6=1,8=1,9=11,15=111,16=1/1,2,10;
 10/6=1,13=1/2;
 7/10=1,25=1/1,2,3,16;
 1/6=100,10=4,18=10,26=3,39=15,42=40,44=3,71=1,129=10/23(-8);
 2/29=1/2;
 6/7=2,8=2,9=2,10=2,18=1,19=2,28=1/1;
 99/5=20/99;
 -----------
 pp_22_0 IRC
 -----------
 Symbolic Z-matrix:
 Charge =  0 Multiplicity = 1
 C                    -1.27187  -0.57626  -0.374 
 C                    -0.18285  -1.07278   0.62222 
 C                     1.01929  -0.11153   0.27157 
 O                    -1.42021   0.77232  -0.28271 
 O                     0.29099   1.20636   0.49797 
 O                     1.63812  -0.24627  -0.81358 
 H                     0.52808   1.77935  -0.26259 
 H                    -2.20571  -1.04492  -0.00402 
 H                    -1.00554  -0.9134   -1.38621 
 H                     1.63245  -0.07657   1.21662 
 H                     0.09576  -2.11498   0.44669 
 H                    -0.50368  -0.92534   1.6573 
 
 IRC-IRC-IRC-IRC-IRC-IRC-IRC-IRC-IRC-IRC-IRC-IRC-IRC-IRC-IRC-IRC-IRC-IRC
 ------------------------------------------------------------------------
 INPUT DATA FOR L123
 ------------------------------------------------------------------------
 GENERAL PARAMETERS:
 Follow reaction path in both directions.
 Maximum points per path      =  40
 Step size                    =   0.150 bohr
 Integration scheme           = HPC                                 
    Redo corrector integration= Yes                                 
    DWI Weight Power          =  2
    DWI will use Hessian update vectors when possible.
    Max correction cycles     = 100
 Initial Hessian              = CalcFC
 Hessian evaluation           = Analytic at all predictor steps
                              = Update at all corrector steps
 Hessian updating method      = Bofill                              
 ------------------------------------------------------------------------
 IRC-IRC-IRC-IRC-IRC-IRC-IRC-IRC-IRC-IRC-IRC-IRC-IRC-IRC-IRC-IRC-IRC-IRC
                          Input orientation:                          
 ---------------------------------------------------------------------
 Center     Atomic      Atomic             Coordinates (Angstroms)
 Number     Number       Type             X           Y           Z
 ---------------------------------------------------------------------
      1          6           0       -1.271866   -0.576263   -0.374004
      2          6           0       -0.182850   -1.072778    0.622220
      3          6           0        1.019290   -0.111531    0.271574
      4          8           0       -1.420211    0.772322   -0.282714
      5          8           0        0.290992    1.206357    0.497973
      6          8           0        1.638118   -0.246267   -0.813576
      7          1           0        0.528083    1.779345   -0.262590
      8          1           0       -2.205711   -1.044917   -0.004022
      9          1           0       -1.005537   -0.913398   -1.386207
     10          1           0        1.632451   -0.076569    1.216619
     11          1           0        0.095755   -2.114982    0.446693
     12          1           0       -0.503680   -0.925343    1.657296
 ---------------------------------------------------------------------
                    Distance matrix (angstroms):
                    1          2          3          4          5
     1  C    0.000000
     2  C    1.557224   0.000000
     3  C    2.425313   1.578635   0.000000
     4  O    1.359787   2.398825   2.653224   0.000000
     5  O    2.525986   2.331184   1.522663   1.930304   0.000000
     6  O    2.961440   2.461819   1.256444   3.266912   2.375926
     7  H    2.966668   3.069678   2.025346   2.193251   0.981317
     8  H    1.108418   2.117763   3.368649   1.999259   3.399082
     9  H    1.099612   2.176234   2.736997   2.057013   3.118410
    10  H    3.348855   2.154312   1.127075   3.505333   1.990443
    11  H    2.216210   1.092987   2.213007   3.341663   3.327467
    12  H    2.199579   1.093641   2.214035   2.736007   2.553366
                    6          7          8          9         10
     6  O    0.000000
     7  H    2.374630   0.000000
     8  H    4.008521   3.939155   0.000000
     9  H    2.786015   3.296266   1.835252   0.000000
    10  H    2.037283   2.617653   4.142360   3.799206   0.000000
    11  H    2.731164   3.981931   2.577776   2.452788   2.666336
    12  H    3.339708   3.473591   2.381425   3.084625   2.340442
                   11         12
    11  H    0.000000
    12  H    1.800034   0.000000
 Symmetry turned off by external request.
 Stoichiometry    C3H6O3
 Framework group  C1[X(C3H6O3)]
 Deg. of freedom    30
 Full point group                 C1      NOp   1
 Rotational constants (GHZ):           5.5415847           3.4221860           2.8041482
 Standard basis: 6-31+G(d) (6D, 7F)
   126 basis functions,   216 primitive gaussians,   126 cartesian basis functions
    24 alpha electrons       24 beta electrons
       nuclear repulsion energy       255.4123007654 Hartrees.
 NAtoms=   12 NActive=   12 NUniq=   12 SFac= 1.00D+00 NAtFMM=   60 NAOKFM=F Big=F
 Integral buffers will be    131072 words long.
 Raffenetti 2 integral format.
 Two-electron integral symmetry is turned off.
 One-electron integrals computed using PRISM.
 NBasis=   126 RedAO= T EigKep=  1.49D-04  NBF=   126
 NBsUse=   126 1.00D-06 EigRej= -1.00D+00 NBFU=   126
 ExpMin= 4.38D-02 ExpMax= 5.48D+03 ExpMxC= 8.25D+02 IAcc=3 IRadAn=         5 AccDes= 0.00D+00
 Harris functional with IExCor=  402 and IRadAn=       5 diagonalized for initial guess.
 HarFok:  IExCor=  402 AccDes= 0.00D+00 IRadAn=         5 IDoV= 1 UseB2=F ITyADJ=14
 ICtDFT=  3500011 ScaDFX=  1.000000  1.000000  1.000000  1.000000
 FoFCou: FMM=F IPFlag=           0 FMFlag=      100000 FMFlg1=           0
         NFxFlg=           0 DoJE=T BraDBF=F KetDBF=T FulRan=T
         wScrn=  0.000000 ICntrl=       500 IOpCl=  0 I1Cent=   200000004 NGrid=           0
         NMat0=    1 NMatS0=      1 NMatT0=    0 NMatD0=    1 NMtDS0=    0 NMtDT0=    0
 Symmetry not used in FoFCou.
 Keep R1 ints in memory in canonical form, NReq=47237243.
 Requested convergence on RMS density matrix=1.00D-08 within 128 cycles.
 Requested convergence on MAX density matrix=1.00D-06.
 Requested convergence on             energy=1.00D-06.
 No special actions if energy rises.
 EnCoef did     1 forward-backward iterations
 EnCoef did     3 forward-backward iterations
 SCF Done:  E(RB3LYP) =  -343.437229424     A.U. after   17 cycles
            NFock= 17  Conv=0.91D-08     -V/T= 2.0091
 DoSCS=F DFT=T ScalE2(SS,OS)=  1.000000  1.000000
 Range of M.O.s used for correlation:     1   126
 NBasis=   126 NAE=    24 NBE=    24 NFC=     0 NFV=     0
 NROrb=    126 NOA=    24 NOB=    24 NVA=   102 NVB=   102

 **** Warning!!: The largest alpha MO coefficient is  0.32936461D+02


 **** Warning!!: The smallest alpha delta epsilon is  0.81749355D-01

 Symmetrizing basis deriv contribution to polar:
 IMax=3 JMax=2 DiffMx= 0.00D+00
 G2DrvN: will do    13 centers at a time, making    1 passes.
 Calling FoFCou, ICntrl=  3107 FMM=F I1Cent=   0 AccDes= 0.00D+00.
 End of G2Drv F.D. properties file   721 does not exist.
 End of G2Drv F.D. properties file   722 does not exist.
 End of G2Drv F.D. properties file   788 does not exist.
          IDoAtm=111111111111
          Differentiating once with respect to nuclear coordinates.
 Keep R1 ints in memory in canonical form, NReq=47193258.
          There are    39 degrees of freedom in the 1st order CPHF.  IDoFFX=6 NUNeed=     0.
     33 vectors produced by pass  0 Test12= 6.28D-15 2.56D-09 XBig12= 3.21D-01 2.90D-01.
 AX will form    33 AO Fock derivatives at one time.
     33 vectors produced by pass  1 Test12= 6.28D-15 2.56D-09 XBig12= 9.37D-02 5.35D-02.
     33 vectors produced by pass  2 Test12= 6.28D-15 2.56D-09 XBig12= 1.49D-03 6.65D-03.
     33 vectors produced by pass  3 Test12= 6.28D-15 2.56D-09 XBig12= 8.58D-06 4.27D-04.
     33 vectors produced by pass  4 Test12= 6.28D-15 2.56D-09 XBig12= 1.56D-08 1.74D-05.
     30 vectors produced by pass  5 Test12= 6.28D-15 2.56D-09 XBig12= 1.69D-11 5.08D-07.
      6 vectors produced by pass  6 Test12= 6.28D-15 2.56D-09 XBig12= 1.28D-14 1.52D-08.
 InvSVY:  IOpt=1 It=  1 EMax= 1.33D-15
 Solved reduced A of dimension   201 with    33 vectors.
 End of Minotr F.D. properties file   721 does not exist.
 End of Minotr F.D. properties file   722 does not exist.
 End of Minotr F.D. properties file   788 does not exist.

 **********************************************************************

            Population analysis using the SCF Density.

 **********************************************************************

 Alpha  occ. eigenvalues --  -19.25387 -19.21437 -19.12910 -10.31788 -10.26833
 Alpha  occ. eigenvalues --  -10.24341  -1.10498  -1.02605  -1.00110  -0.79591
 Alpha  occ. eigenvalues --   -0.67288  -0.61691  -0.54327  -0.52642  -0.48285
 Alpha  occ. eigenvalues --   -0.46376  -0.45555  -0.43183  -0.41464  -0.40172
 Alpha  occ. eigenvalues --   -0.37171  -0.29675  -0.28044  -0.25541
 Alpha virt. eigenvalues --   -0.17366  -0.00285   0.01442   0.01643   0.03731
 Alpha virt. eigenvalues --    0.04351   0.05508   0.06711   0.07217   0.08998
 Alpha virt. eigenvalues --    0.09845   0.11762   0.13135   0.14378   0.15562
 Alpha virt. eigenvalues --    0.16774   0.18811   0.19177   0.19890   0.21936
 Alpha virt. eigenvalues --    0.22315   0.23938   0.24527   0.25223   0.26611
 Alpha virt. eigenvalues --    0.27238   0.28937   0.29579   0.30901   0.31210
 Alpha virt. eigenvalues --    0.31820   0.32666   0.34871   0.39165   0.42298
 Alpha virt. eigenvalues --    0.48198   0.61254   0.64190   0.65638   0.66664
 Alpha virt. eigenvalues --    0.68770   0.75974   0.76714   0.79307   0.88502
 Alpha virt. eigenvalues --    0.92112   0.94628   0.96765   1.00952   1.04443
 Alpha virt. eigenvalues --    1.06198   1.06919   1.13513   1.14562   1.20792
 Alpha virt. eigenvalues --    1.22980   1.24304   1.27002   1.28911   1.32377
 Alpha virt. eigenvalues --    1.33161   1.38018   1.45226   1.47395   1.51319
 Alpha virt. eigenvalues --    1.52257   1.56986   1.61493   1.66676   1.68316
 Alpha virt. eigenvalues --    1.74463   1.80340   1.82815   1.86894   1.87573
 Alpha virt. eigenvalues --    1.90946   1.93056   1.98277   2.05551   2.12488
 Alpha virt. eigenvalues --    2.14594   2.16344   2.21549   2.27015   2.32412
 Alpha virt. eigenvalues --    2.38728   2.40366   2.48437   2.53076   2.63225
 Alpha virt. eigenvalues --    2.64751   2.73052   2.76333   2.89129   2.95308
 Alpha virt. eigenvalues --    3.07846   4.06555   4.18166   4.27242   4.31045
 Alpha virt. eigenvalues --    4.49312   4.53584
          Condensed to atoms (all electrons):
               1          2          3          4          5          6
     1  C    5.408880  -0.183347  -0.017272   0.276830  -0.058803   0.000144
     2  C   -0.183347   6.600744  -0.168597  -0.142033  -0.102299  -0.134255
     3  C   -0.017272  -0.168597   5.313467   0.014336   0.019456   0.409541
     4  O    0.276830  -0.142033   0.014336   8.247318  -0.070859   0.017614
     5  O   -0.058803  -0.102299   0.019456  -0.070859   8.692942  -0.131620
     6  O    0.000144  -0.134255   0.409541   0.017614  -0.131620   8.346452
     7  H    0.003426   0.007958   0.015293  -0.019778   0.180004   0.003279
     8  H    0.386993  -0.086103   0.043406  -0.058515   0.005864   0.001371
     9  H    0.432172  -0.048639  -0.050111  -0.054971   0.002598   0.006082
    10  H    0.031994  -0.131423   0.421675   0.012218  -0.066121  -0.050294
    11  H   -0.004807   0.342617  -0.030637   0.003684   0.010771  -0.005948
    12  H   -0.040706   0.372034  -0.040328   0.009115  -0.002900   0.006625
               7          8          9         10         11         12
     1  C    0.003426   0.386993   0.432172   0.031994  -0.004807  -0.040706
     2  C    0.007958  -0.086103  -0.048639  -0.131423   0.342617   0.372034
     3  C    0.015293   0.043406  -0.050111   0.421675  -0.030637  -0.040328
     4  O   -0.019778  -0.058515  -0.054971   0.012218   0.003684   0.009115
     5  O    0.180004   0.005864   0.002598  -0.066121   0.010771  -0.002900
     6  O    0.003279   0.001371   0.006082  -0.050294  -0.005948   0.006625
     7  H    0.261388  -0.000096   0.000143   0.003944  -0.000265  -0.000031
     8  H   -0.000096   0.542386  -0.048041   0.000150  -0.000623  -0.006042
     9  H    0.000143  -0.048041   0.541472   0.000157  -0.001397   0.004300
    10  H    0.003944   0.000150   0.000157   0.549848   0.000547  -0.000362
    11  H   -0.000265  -0.000623  -0.001397   0.000547   0.475758  -0.028306
    12  H   -0.000031  -0.006042   0.004300  -0.000362  -0.028306   0.497718
 Mulliken charges:
               1
     1  C   -0.235503
     2  C   -0.326657
     3  C    0.069772
     4  O   -0.234959
     5  O   -0.479033
     6  O   -0.468993
     7  H    0.544734
     8  H    0.219249
     9  H    0.216234
    10  H    0.227668
    11  H    0.238606
    12  H    0.228882
 Sum of Mulliken charges =  -0.00000
 Mulliken charges with hydrogens summed into heavy atoms:
               1
     1  C    0.199980
     2  C    0.140831
     3  C    0.297440
     4  O   -0.234959
     5  O    0.065701
     6  O   -0.468993
 APT charges:
               1
     1  C   -0.786596
     2  C   -0.704464
     3  C   -0.405657
     4  O   -0.273983
     5  O   -0.439814
     6  O   -0.451904
     7  H    0.656767
     8  H    0.544486
     9  H    0.404469
    10  H    0.488116
    11  H    0.518113
    12  H    0.450467
 Sum of APT charges =  -0.00000
 APT charges with hydrogens summed into heavy atoms:
               1
     1  C    0.162359
     2  C    0.264116
     3  C    0.082459
     4  O   -0.273983
     5  O    0.216953
     6  O   -0.451904
 Electronic spatial extent (au):  <R**2>=            502.5320
 Charge=             -0.0000 electrons
 Dipole moment (field-independent basis, Debye):
    X=             -1.3004    Y=             -1.2262    Z=              2.0518  Tot=              2.7212
 Quadrupole moment (field-independent basis, Debye-Ang):
   XX=            -40.4772   YY=            -32.5993   ZZ=            -37.3020
   XY=              5.5969   XZ=              4.3397   YZ=             -2.7357
 Traceless Quadrupole moment (field-independent basis, Debye-Ang):
   XX=             -3.6844   YY=              4.1935   ZZ=             -0.5091
   XY=              5.5969   XZ=              4.3397   YZ=             -2.7357
 Octapole moment (field-independent basis, Debye-Ang**2):
  XXX=             -9.6474  YYY=             10.0753  ZZZ=              2.0237  XYY=              3.3910
  XXY=             -1.1545  XXZ=              8.5138  XZZ=             -2.4912  YZZ=              0.3472
  YYZ=             -3.2991  XYZ=             -2.6952
 Hexadecapole moment (field-independent basis, Debye-Ang**3):
 XXXX=           -333.0853 YYYY=           -169.8367 ZZZZ=           -115.6477 XXXY=             12.8403
 XXXZ=             14.0481 YYYX=              5.0942 YYYZ=             -5.9036 ZZZX=              2.9548
 ZZZY=             -0.1057 XXYY=            -87.3583 XXZZ=            -76.5492 YYZZ=            -54.6956
 XXYZ=             -1.3337 YYXZ=             -1.7427 ZZXY=              1.1661
 N-N= 2.554123007654D+02 E-N=-1.315274788090D+03  KE= 3.403345581160D+02
  Exact polarizability:   0.000   0.000   0.000   0.000   0.000   0.000
 Approx polarizability: 233.092 -50.103 111.569   0.720   7.404  78.163
 Calling FoFJK, ICntrl=    100127 FMM=F ISym2X=0 I1Cent= 0 IOpClX= 0 NMat=1 NMatS=1 NMatT=0.
 -------------------------------------------------------------------
 Center     Atomic                   Forces (Hartrees/Bohr)
 Number     Number              X              Y              Z
 -------------------------------------------------------------------
      1        6          -0.000000827   -0.000000347    0.000001801
      2        6           0.000000566    0.000001168    0.000000333
      3        6           0.000000527   -0.000001706   -0.000001297
      4        8           0.000000854    0.000000541   -0.000000181
      5        8           0.000000045   -0.000000106   -0.000001233
      6        8          -0.000000969   -0.000000837   -0.000000620
      7        1           0.000000326   -0.000000740   -0.000001870
      8        1          -0.000000361    0.000000794    0.000001557
      9        1          -0.000001169   -0.000000706    0.000001069
     10        1           0.000000581    0.000000854   -0.000000953
     11        1          -0.000000308    0.000000051    0.000001196
     12        1           0.000000733    0.000001034    0.000000199
 -------------------------------------------------------------------
 Cartesian Forces:  Max     0.000001870 RMS     0.000000925
 IRC-IRC-IRC-IRC-IRC-IRC-IRC-IRC-IRC-IRC-IRC-IRC-IRC-IRC-IRC-IRC-IRC-IRC
          ******** Start new reaction path calculation ********
 Supplied step size of   0.1500 bohr.
    Integration on MW PES will use step size of   0.4057 sqrt(amu)*bohr.
 Point Number:   0          Path Number:   1
 Calculating another point on the path.
 IRC-IRC-IRC-IRC-IRC-IRC-IRC-IRC-IRC-IRC-IRC-IRC-IRC-IRC-IRC-IRC-IRC-IRC
                          Input orientation:                          
 ---------------------------------------------------------------------
 Center     Atomic      Atomic             Coordinates (Angstroms)
 Number     Number       Type             X           Y           Z
 ---------------------------------------------------------------------
      1          6           0       -1.283087   -0.615586   -0.351101
      2          6           0       -0.195410   -1.111293    0.636598
      3          6           0        1.011447   -0.170890    0.290884
      4          8           0       -1.413398    0.747398   -0.253086
      5          8           0        0.240140    1.177281    0.506278
      6          8           0        1.622647   -0.284288   -0.795963
      7          1           0        0.503564    1.747610   -0.249155
      8          1           0       -2.233420   -1.058903    0.000649
      9          1           0       -1.022151   -0.939124   -1.368194
     10          1           0        1.621859   -0.064881    1.233809
     11          1           0        0.075673   -2.155784    0.461731
     12          1           0       -0.516574   -0.966684    1.672437
 ---------------------------------------------------------------------
                    Distance matrix (angstroms):
                    1          2          3          4          5
     1  C    0.000000
     2  C    1.550586   0.000000
     3  C    2.423796   1.568560   0.000000
     4  O    1.372703   2.393693   2.649346   0.000000
     5  O    2.503936   2.333294   1.568080   1.869659   0.000000
     6  O    2.958201   2.457946   1.252062   3.252178   2.396526
     7  H    2.964323   3.073508   2.056752   2.162217   0.982520
     8  H    1.106069   2.135570   3.376680   1.999884   3.372637
     9  H    1.098747   2.175393   2.734638   2.059344   3.096158
    10  H    3.354687   2.180391   1.128250   3.476124   1.995348
    11  H    2.208877   1.093172   2.201061   3.340174   3.337418
    12  H    2.192149   1.094085   2.208354   2.729470   2.555216
                    6          7          8          9         10
     6  O    0.000000
     7  H    2.383265   0.000000
     8  H    4.012963   3.928103   0.000000
     9  H    2.784100   3.286121   1.831735   0.000000
    10  H    2.041596   2.595166   4.167966   3.811235   0.000000
    11  H    2.734487   3.990606   2.597625   2.456442   2.712688
    12  H    3.336904   3.478590   2.398112   3.082500   2.361893
                   11         12
    11  H    0.000000
    12  H    1.797366   0.000000
 Symmetry turned off by external request.
 Stoichiometry    C3H6O3
 Framework group  C1[X(C3H6O3)]
 Deg. of freedom    30
 Full point group                 C1      NOp   1
 Rotational constants (GHZ):           5.5327461           3.4539198           2.8113176
 Standard basis: 6-31+G(d) (6D, 7F)
   126 basis functions,   216 primitive gaussians,   126 cartesian basis functions
    24 alpha electrons       24 beta electrons
       nuclear repulsion energy       255.5860829869 Hartrees.
 NAtoms=   12 NActive=   12 NUniq=   12 SFac= 1.00D+00 NAtFMM=   60 NAOKFM=F Big=F
 Integral buffers will be    131072 words long.
 Raffenetti 2 integral format.
 Two-electron integral symmetry is turned off.
 One-electron integrals computed using PRISM.
 NBasis=   126 RedAO= T EigKep=  1.43D-04  NBF=   126
 NBsUse=   126 1.00D-06 EigRej= -1.00D+00 NBFU=   126
 Initial guess from the checkpoint file:  "/scratch/bell/zhao922/YARP/paper-example/KHP-network/pp_0/IRC-folder/Gau-73429.chk"
 B after Tr=    -0.030638   -0.066977    0.034149
         Rot=    1.000000    0.000073    0.000043   -0.000051 Ang=   0.01 deg.
 ExpMin= 4.38D-02 ExpMax= 5.48D+03 ExpMxC= 8.25D+02 IAcc=3 IRadAn=         5 AccDes= 0.00D+00
 Harris functional with IExCor=  402 and IRadAn=       5 diagonalized for initial guess.
 HarFok:  IExCor=  402 AccDes= 0.00D+00 IRadAn=         5 IDoV= 1 UseB2=F ITyADJ=14
 ICtDFT=  3500011 ScaDFX=  1.000000  1.000000  1.000000  1.000000
 FoFCou: FMM=F IPFlag=           0 FMFlag=      100000 FMFlg1=           0
         NFxFlg=           0 DoJE=T BraDBF=F KetDBF=T FulRan=T
         wScrn=  0.000000 ICntrl=       500 IOpCl=  0 I1Cent=   200000004 NGrid=           0
         NMat0=    1 NMatS0=      1 NMatT0=    0 NMatD0=    1 NMtDS0=    0 NMtDT0=    0
 Symmetry not used in FoFCou.
 Keep R1 ints in memory in canonical form, NReq=47237243.
 Requested convergence on RMS density matrix=1.00D-08 within 128 cycles.
 Requested convergence on MAX density matrix=1.00D-06.
 Requested convergence on             energy=1.00D-06.
 No special actions if energy rises.
 SCF Done:  E(RB3LYP) =  -343.437792971     A.U. after   14 cycles
            NFock= 14  Conv=0.58D-08     -V/T= 2.0091
 DoSCS=F DFT=T ScalE2(SS,OS)=  1.000000  1.000000
 Range of M.O.s used for correlation:     1   126
 NBasis=   126 NAE=    24 NBE=    24 NFC=     0 NFV=     0
 NROrb=    126 NOA=    24 NOB=    24 NVA=   102 NVB=   102

 **** Warning!!: The largest alpha MO coefficient is  0.32373727D+02


 **** Warning!!: The smallest alpha delta epsilon is  0.83151679D-01

 Symmetrizing basis deriv contribution to polar:
 IMax=3 JMax=2 DiffMx= 0.00D+00
 G2DrvN: will do    13 centers at a time, making    1 passes.
 Calling FoFCou, ICntrl=  3107 FMM=F I1Cent=   0 AccDes= 0.00D+00.
 End of G2Drv F.D. properties file   721 does not exist.
 End of G2Drv F.D. properties file   722 does not exist.
 End of G2Drv F.D. properties file   788 does not exist.
          IDoAtm=111111111111
          Differentiating once with respect to nuclear coordinates.
 Keep R1 ints in memory in canonical form, NReq=47193258.
          There are    39 degrees of freedom in the 1st order CPHF.  IDoFFX=6 NUNeed=     0.
     33 vectors produced by pass  0 Test12= 6.28D-15 2.56D-09 XBig12= 2.99D-01 2.79D-01.
 AX will form    33 AO Fock derivatives at one time.
     33 vectors produced by pass  1 Test12= 6.28D-15 2.56D-09 XBig12= 1.05D-01 5.60D-02.
     33 vectors produced by pass  2 Test12= 6.28D-15 2.56D-09 XBig12= 1.57D-03 5.92D-03.
     33 vectors produced by pass  3 Test12= 6.28D-15 2.56D-09 XBig12= 9.55D-06 5.04D-04.
     33 vectors produced by pass  4 Test12= 6.28D-15 2.56D-09 XBig12= 1.69D-08 1.73D-05.
     29 vectors produced by pass  5 Test12= 6.28D-15 2.56D-09 XBig12= 1.86D-11 5.83D-07.
      6 vectors produced by pass  6 Test12= 6.28D-15 2.56D-09 XBig12= 1.57D-14 1.62D-08.
 InvSVY:  IOpt=1 It=  1 EMax= 2.22D-15
 Solved reduced A of dimension   200 with    33 vectors.
 End of Minotr F.D. properties file   721 does not exist.
 End of Minotr F.D. properties file   722 does not exist.
 End of Minotr F.D. properties file   788 does not exist.
 Calling FoFJK, ICntrl=    100127 FMM=F ISym2X=0 I1Cent= 0 IOpClX= 0 NMat=1 NMatS=1 NMatT=0.
 -------------------------------------------------------------------
 Center     Atomic                   Forces (Hartrees/Bohr)
 Number     Number              X              Y              Z
 -------------------------------------------------------------------
      1        6           0.000557165   -0.000708833    0.000529394
      2        6           0.000385508   -0.000430392   -0.000437237
      3        6           0.003551243   -0.004463263    0.000585040
      4        8           0.004550807    0.002669700    0.002330019
      5        8          -0.007827016    0.002761716   -0.002409317
      6        8          -0.000405104   -0.000234056    0.000280839
      7        1          -0.000301351   -0.000141396    0.000180539
      8        1           0.000144907    0.000314197   -0.000187421
      9        1          -0.000023891    0.000142904    0.000049751
     10        1          -0.000647437    0.000164105   -0.000845824
     11        1          -0.000061286   -0.000038788   -0.000047394
     12        1           0.000076456   -0.000035896   -0.000028390
 -------------------------------------------------------------------
 Cartesian Forces:  Max     0.007827016 RMS     0.002001729
 IRC-IRC-IRC-IRC-IRC-IRC-IRC-IRC-IRC-IRC-IRC-IRC-IRC-IRC-IRC-IRC-IRC-IRC
 Pt  1 Step number   1 out of a maximum of 100
 Modified Bulirsch-Stoer Extrapolation Cycles:
    EPS =    0.000010000000000
      PEZero:  N= 2 I= 1 D=  1.06D-03 Err=  2.05D-03
      PEZero:  N= 3 I= 2 D=  1.06D-03 Err=  1.37D-03
      PEZero:  N= 3 I= 1 D=  2.11D-03 Err=  4.30D-07
 Maximum DWI energy   std dev =  0.000012917 at pt    47
 Maximum DWI gradient std dev =  0.123140695 at pt    20
 CORRECTOR INTEGRATION CONVERGENCE:
   Recorrection delta-x convergence threshold:    0.010000
   Delta-x Convergence NOT Met
 IRC-IRC-IRC-IRC-IRC-IRC-IRC-IRC-IRC-IRC-IRC-IRC-IRC-IRC-IRC-IRC-IRC-IRC
                          Input orientation:                          
 ---------------------------------------------------------------------
 Center     Atomic      Atomic             Coordinates (Angstroms)
 Number     Number       Type             X           Y           Z
 ---------------------------------------------------------------------
      1          6           0       -1.283135   -0.615636   -0.351329
      2          6           0       -0.195660   -1.111233    0.636723
      3          6           0        1.012958   -0.171867    0.290957
      4          8           0       -1.414085    0.747318   -0.253313
      5          8           0        0.240173    1.178298    0.506553
      6          8           0        1.622490   -0.284217   -0.796007
      7          1           0        0.502482    1.747664   -0.249394
      8          1           0       -2.232320   -1.059803    0.001252
      9          1           0       -1.022175   -0.939371   -1.368232
     10          1           0        1.620658   -0.068956    1.233208
     11          1           0        0.075101   -2.155872    0.462166
     12          1           0       -0.516367   -0.965943    1.672600
 ---------------------------------------------------------------------
                    Distance matrix (angstroms):
                    1          2          3          4          5
     1  C    0.000000
     2  C    1.550634   0.000000
     3  C    2.425182   1.569306   0.000000
     4  O    1.372734   2.393937   2.651730   0.000000
     5  O    2.504921   2.334277   1.570549   1.870751   0.000000
     6  O    2.958080   2.458117   1.251256   3.252594   2.397168
     7  H    2.963782   3.073418   2.058437   2.161929   0.982059
     8  H    1.105690   2.134117   3.377010   2.000000   3.373077
     9  H    1.098634   2.175433   2.735642   2.059504   3.097235
    10  H    3.352855   2.177418   1.125934   3.476452   1.997351
    11  H    2.208825   1.093184   2.201174   3.340374   3.338549
    12  H    2.192473   1.094076   2.208695   2.729524   2.555345
                    6          7          8          9         10
     6  O    0.000000
     7  H    2.383641   0.000000
     8  H    4.012072   3.927320   0.000000
     9  H    2.784048   3.285808   1.831514   0.000000
    10  H    2.040601   2.597794   4.164725   3.809158   0.000000
    11  H    2.735051   3.990810   2.595766   2.456471   2.708961
    12  H    3.336687   3.477898   2.397229   3.082727   2.358925
                   11         12
    11  H    0.000000
    12  H    1.797475   0.000000
 Symmetry turned off by external request.
 Stoichiometry    C3H6O3
 Framework group  C1[X(C3H6O3)]
 Deg. of freedom    30
 Full point group                 C1      NOp   1
 Rotational constants (GHZ):           5.5296954           3.4523454           2.8098735
 Standard basis: 6-31+G(d) (6D, 7F)
   126 basis functions,   216 primitive gaussians,   126 cartesian basis functions
    24 alpha electrons       24 beta electrons
       nuclear repulsion energy       255.5368659766 Hartrees.
 NAtoms=   12 NActive=   12 NUniq=   12 SFac= 1.00D+00 NAtFMM=   60 NAOKFM=F Big=F
 Integral buffers will be    131072 words long.
 Raffenetti 2 integral format.
 Two-electron integral symmetry is turned off.
 One-electron integrals computed using PRISM.
 NBasis=   126 RedAO= T EigKep=  1.43D-04  NBF=   126
 NBsUse=   126 1.00D-06 EigRej= -1.00D+00 NBFU=   126
 Initial guess from the checkpoint file:  "/scratch/bell/zhao922/YARP/paper-example/KHP-network/pp_0/IRC-folder/Gau-73429.chk"
 B after Tr=    -0.000030   -0.000088    0.000006
         Rot=    1.000000   -0.000002   -0.000007    0.000007 Ang=  -0.00 deg.
 ExpMin= 4.38D-02 ExpMax= 5.48D+03 ExpMxC= 8.25D+02 IAcc=3 IRadAn=         5 AccDes= 0.00D+00
 Harris functional with IExCor=  402 and IRadAn=       5 diagonalized for initial guess.
 HarFok:  IExCor=  402 AccDes= 0.00D+00 IRadAn=         5 IDoV= 1 UseB2=F ITyADJ=14
 ICtDFT=  3500011 ScaDFX=  1.000000  1.000000  1.000000  1.000000
 FoFCou: FMM=F IPFlag=           0 FMFlag=      100000 FMFlg1=           0
         NFxFlg=           0 DoJE=T BraDBF=F KetDBF=T FulRan=T
         wScrn=  0.000000 ICntrl=       500 IOpCl=  0 I1Cent=   200000004 NGrid=           0
         NMat0=    1 NMatS0=      1 NMatT0=    0 NMatD0=    1 NMtDS0=    0 NMtDT0=    0
 Symmetry not used in FoFCou.
 Keep R1 ints in memory in canonical form, NReq=47237243.
 Requested convergence on RMS density matrix=1.00D-08 within 128 cycles.
 Requested convergence on MAX density matrix=1.00D-06.
 Requested convergence on             energy=1.00D-06.
 No special actions if energy rises.
 SCF Done:  E(RB3LYP) =  -343.437802870     A.U. after   11 cycles
            NFock= 11  Conv=0.80D-08     -V/T= 2.0091
 DoSCS=F DFT=T ScalE2(SS,OS)=  1.000000  1.000000
 Range of M.O.s used for correlation:     1   126
 NBasis=   126 NAE=    24 NBE=    24 NFC=     0 NFV=     0
 NROrb=    126 NOA=    24 NOB=    24 NVA=   102 NVB=   102

 **** Warning!!: The largest alpha MO coefficient is  0.32370618D+02


 **** Warning!!: The smallest alpha delta epsilon is  0.83122936D-01

 Symmetrizing basis deriv contribution to polar:
 IMax=3 JMax=2 DiffMx= 0.00D+00
 Calling FoFJK, ICntrl=      2127 FMM=F ISym2X=0 I1Cent= 0 IOpClX= 0 NMat=1 NMatS=1 NMatT=0.
 -------------------------------------------------------------------
 Center     Atomic                   Forces (Hartrees/Bohr)
 Number     Number              X              Y              Z
 -------------------------------------------------------------------
      1        6           0.000816331   -0.000545336    0.000658002
      2        6           0.000459712   -0.000358683   -0.000630610
      3        6           0.002162534   -0.004451293    0.000221843
      4        8           0.004768367    0.002520869    0.002450126
      5        8          -0.007964067    0.002327043   -0.002106154
      6        8           0.000047677   -0.000377871   -0.000231628
      7        1          -0.000172780    0.000064817   -0.000087763
      8        1          -0.000124729    0.000281452   -0.000175104
      9        1          -0.000007080    0.000142708   -0.000008275
     10        1           0.000048803    0.000507018   -0.000022775
     11        1          -0.000086966   -0.000071025   -0.000026567
     12        1           0.000052198   -0.000039698   -0.000041096
 -------------------------------------------------------------------
 Cartesian Forces:  Max     0.007964067 RMS     0.001941595
 IRC-IRC-IRC-IRC-IRC-IRC-IRC-IRC-IRC-IRC-IRC-IRC-IRC-IRC-IRC-IRC-IRC-IRC
 Error in corrector energy =           0.0000002106
 Magnitude of corrector gradient =     0.0116378219
 Magnitude of analytic gradient =      0.0116495685
 Magnitude of difference =             0.0000825173
 Angle between gradients (degrees)=    0.4019
 Pt  1 Step number   2 out of a maximum of 100
 Modified Bulirsch-Stoer Extrapolation Cycles:
    EPS =    0.000010000000000
      PEZero:  N= 2 I= 1 D=  1.06D-03 Err=  2.09D-03
      PEZero:  N= 3 I= 2 D=  1.06D-03 Err=  1.38D-03
      PEZero:  N= 3 I= 1 D=  2.11D-03 Err=  1.80D-05
      PEZero:  N= 4 I= 3 D=  5.28D-04 Err=  1.04D-03
      PEZero:  N= 4 I= 2 D=  1.58D-03 Err=  4.34D-06
      PEZero:  N= 4 I= 1 D=  2.64D-03 Err=  5.61D-06
 Maximum DWI energy   std dev =  0.000012041 at pt    29
 Maximum DWI gradient std dev =  0.265751574 at pt     4
 CORRECTOR INTEGRATION CONVERGENCE:
   Recorrection delta-x convergence threshold:    0.010000
   Delta-x Convergence Met
 Point Number:   1          Path Number:   1
   CHANGE IN THE REACTION COORDINATE =    0.40492
   NET REACTION COORDINATE UP TO THIS POINT =    0.40492
  # OF POINTS ALONG THE PATH =   1
  # OF STEPS =   2

 Calculating another point on the path.
 IRC-IRC-IRC-IRC-IRC-IRC-IRC-IRC-IRC-IRC-IRC-IRC-IRC-IRC-IRC-IRC-IRC-IRC
                          Input orientation:                          
 ---------------------------------------------------------------------
 Center     Atomic      Atomic             Coordinates (Angstroms)
 Number     Number       Type             X           Y           Z
 ---------------------------------------------------------------------
      1          6           0       -1.278302   -0.618780   -0.347633
      2          6           0       -0.193055   -1.113221    0.633028
      3          6           0        1.025548   -0.197789    0.292281
      4          8           0       -1.393458    0.758221   -0.242527
      5          8           0        0.205471    1.188554    0.497496
      6          8           0        1.622813   -0.285978   -0.797119
      7          1           0        0.490424    1.752185   -0.255626
      8          1           0       -2.241144   -1.040350   -0.011388
      9          1           0       -1.022372   -0.929248   -1.368984
     10          1           0        1.624422   -0.033014    1.231358
     11          1           0        0.068670   -2.160865    0.460682
     12          1           0       -0.512987   -0.968250    1.669638
 ---------------------------------------------------------------------
                    Distance matrix (angstroms):
                    1          2          3          4          5
     1  C    0.000000
     2  C    1.543998   0.000000
     3  C    2.427849   1.561767   0.000000
     4  O    1.385800   2.389531   2.655478   0.000000
     5  O    2.486419   2.339948   1.623757   1.813669   0.000000
     6  O    2.954532   2.455000   1.245509   3.239724   2.420564
     7  H    2.959448   3.076914   2.094984   2.130058   0.982890
     8  H    1.103561   2.148314   3.387241   2.001713   3.348567
     9  H    1.097747   2.174780   2.736569   2.062562   3.078381
    10  H    3.355911   2.197286   1.125907   3.450506   2.011020
    11  H    2.201302   1.093509   2.190352   3.339668   3.352414
    12  H    2.185685   1.094502   2.204045   2.722555   2.557714
                    6          7          8          9         10
     6  O    0.000000
     7  H    2.393664   0.000000
     8  H    4.014550   3.913997   0.000000
     9  H    2.781695   3.273866   1.827790   0.000000
    10  H    2.044189   2.585345   4.183509   3.817136   0.000000
    11  H    2.740917   4.000367   2.610296   2.460677   2.746281
    12  H    3.333471   3.480552   2.411965   3.081269   2.373873
                   11         12
    11  H    0.000000
    12  H    1.795058   0.000000
 Symmetry turned off by external request.
 Stoichiometry    C3H6O3
 Framework group  C1[X(C3H6O3)]
 Deg. of freedom    30
 Full point group                 C1      NOp   1
 Rotational constants (GHZ):           5.5130338           3.4763448           2.8110618
 Standard basis: 6-31+G(d) (6D, 7F)
   126 basis functions,   216 primitive gaussians,   126 cartesian basis functions
    24 alpha electrons       24 beta electrons
       nuclear repulsion energy       255.5672768409 Hartrees.
 NAtoms=   12 NActive=   12 NUniq=   12 SFac= 1.00D+00 NAtFMM=   60 NAOKFM=F Big=F
 Integral buffers will be    131072 words long.
 Raffenetti 2 integral format.
 Two-electron integral symmetry is turned off.
 One-electron integrals computed using PRISM.
 NBasis=   126 RedAO= T EigKep=  1.37D-04  NBF=   126
 NBsUse=   126 1.00D-06 EigRej= -1.00D+00 NBFU=   126
 Initial guess from the checkpoint file:  "/scratch/bell/zhao922/YARP/paper-example/KHP-network/pp_0/IRC-folder/Gau-73429.chk"
 B after Tr=    -0.000403    0.001241   -0.000519
         Rot=    1.000000    0.000063    0.000037   -0.000025 Ang=   0.01 deg.
 ExpMin= 4.38D-02 ExpMax= 5.48D+03 ExpMxC= 8.25D+02 IAcc=3 IRadAn=         5 AccDes= 0.00D+00
 Harris functional with IExCor=  402 and IRadAn=       5 diagonalized for initial guess.
 HarFok:  IExCor=  402 AccDes= 0.00D+00 IRadAn=         5 IDoV= 1 UseB2=F ITyADJ=14
 ICtDFT=  3500011 ScaDFX=  1.000000  1.000000  1.000000  1.000000
 FoFCou: FMM=F IPFlag=           0 FMFlag=      100000 FMFlg1=           0
         NFxFlg=           0 DoJE=T BraDBF=F KetDBF=T FulRan=T
         wScrn=  0.000000 ICntrl=       500 IOpCl=  0 I1Cent=   200000004 NGrid=           0
         NMat0=    1 NMatS0=      1 NMatT0=    0 NMatD0=    1 NMtDS0=    0 NMtDT0=    0
 Symmetry not used in FoFCou.
 Keep R1 ints in memory in canonical form, NReq=47237243.
 Requested convergence on RMS density matrix=1.00D-08 within 128 cycles.
 Requested convergence on MAX density matrix=1.00D-06.
 Requested convergence on             energy=1.00D-06.
 No special actions if energy rises.
 SCF Done:  E(RB3LYP) =  -343.439904591     A.U. after   14 cycles
            NFock= 14  Conv=0.54D-08     -V/T= 2.0092
 DoSCS=F DFT=T ScalE2(SS,OS)=  1.000000  1.000000
 Range of M.O.s used for correlation:     1   126
 NBasis=   126 NAE=    24 NBE=    24 NFC=     0 NFV=     0
 NROrb=    126 NOA=    24 NOB=    24 NVA=   102 NVB=   102

 **** Warning!!: The largest alpha MO coefficient is  0.31382376D+02


 **** Warning!!: The smallest alpha delta epsilon is  0.86553245D-01

 Symmetrizing basis deriv contribution to polar:
 IMax=3 JMax=2 DiffMx= 0.00D+00
 G2DrvN: will do    13 centers at a time, making    1 passes.
 Calling FoFCou, ICntrl=  3107 FMM=F I1Cent=   0 AccDes= 0.00D+00.
 End of G2Drv F.D. properties file   721 does not exist.
 End of G2Drv F.D. properties file   722 does not exist.
 End of G2Drv F.D. properties file   788 does not exist.
          IDoAtm=111111111111
          Differentiating once with respect to nuclear coordinates.
 Keep R1 ints in memory in canonical form, NReq=47193258.
          There are    39 degrees of freedom in the 1st order CPHF.  IDoFFX=6 NUNeed=     0.
     33 vectors produced by pass  0 Test12= 6.28D-15 2.56D-09 XBig12= 2.59D-01 2.55D-01.
 AX will form    33 AO Fock derivatives at one time.
     33 vectors produced by pass  1 Test12= 6.28D-15 2.56D-09 XBig12= 1.11D-01 5.66D-02.
     33 vectors produced by pass  2 Test12= 6.28D-15 2.56D-09 XBig12= 1.64D-03 5.41D-03.
     33 vectors produced by pass  3 Test12= 6.28D-15 2.56D-09 XBig12= 1.01D-05 5.82D-04.
     33 vectors produced by pass  4 Test12= 6.28D-15 2.56D-09 XBig12= 1.77D-08 2.12D-05.
     29 vectors produced by pass  5 Test12= 6.28D-15 2.56D-09 XBig12= 1.96D-11 6.09D-07.
      5 vectors produced by pass  6 Test12= 6.28D-15 2.56D-09 XBig12= 1.85D-14 1.77D-08.
 InvSVY:  IOpt=1 It=  1 EMax= 2.00D-15
 Solved reduced A of dimension   199 with    33 vectors.
 End of Minotr F.D. properties file   721 does not exist.
 End of Minotr F.D. properties file   722 does not exist.
 End of Minotr F.D. properties file   788 does not exist.
 Calling FoFJK, ICntrl=    100127 FMM=F ISym2X=0 I1Cent= 0 IOpClX= 0 NMat=1 NMatS=1 NMatT=0.
 -------------------------------------------------------------------
 Center     Atomic                   Forces (Hartrees/Bohr)
 Number     Number              X              Y              Z
 -------------------------------------------------------------------
      1        6           0.001782749   -0.001376615    0.001330673
      2        6           0.001087970   -0.000886956   -0.001374836
      3        6           0.006597611   -0.010904293    0.001224397
      4        8           0.011072421    0.006219720    0.005859391
      5        8          -0.019327804    0.006474941   -0.005398482
      6        8          -0.000178372   -0.000847204   -0.000353566
      7        1          -0.000566979   -0.000034523    0.000005431
      8        1          -0.000085281    0.000625155   -0.000428890
      9        1          -0.000013719    0.000320297    0.000014073
     10        1          -0.000298625    0.000607745   -0.000731929
     11        1          -0.000229566   -0.000144004   -0.000053558
     12        1           0.000159595   -0.000054264   -0.000092704
 -------------------------------------------------------------------
 Cartesian Forces:  Max     0.019327804 RMS     0.004766416
 IRC-IRC-IRC-IRC-IRC-IRC-IRC-IRC-IRC-IRC-IRC-IRC-IRC-IRC-IRC-IRC-IRC-IRC
 Pt  2 Step number   1 out of a maximum of 100
 Modified Bulirsch-Stoer Extrapolation Cycles:
    EPS =    0.000010000000000
      PEZero:  N= 2 I= 1 D=  2.11D-03 Err=  9.33D-05
      PEZero:  N= 3 I= 2 D=  2.11D-03 Err=  6.20D-05
      PEZero:  N= 3 I= 1 D=  4.22D-03 Err=  3.93D-07
 Maximum DWI energy   std dev =  0.000015004 at pt    69
 Maximum DWI gradient std dev =  0.054617394 at pt    23
 CORRECTOR INTEGRATION CONVERGENCE:
   Recorrection delta-x convergence threshold:    0.010000
   Delta-x Convergence Met
 Point Number:   2          Path Number:   1
   CHANGE IN THE REACTION COORDINATE =    0.40530
   NET REACTION COORDINATE UP TO THIS POINT =    0.81022
  # OF POINTS ALONG THE PATH =   2
  # OF STEPS =   1

 Calculating another point on the path.
 IRC-IRC-IRC-IRC-IRC-IRC-IRC-IRC-IRC-IRC-IRC-IRC-IRC-IRC-IRC-IRC-IRC-IRC
                          Input orientation:                          
 ---------------------------------------------------------------------
 Center     Atomic      Atomic             Coordinates (Angstroms)
 Number     Number       Type             X           Y           Z
 ---------------------------------------------------------------------
      1          6           0       -1.273654   -0.621924   -0.344429
      2          6           0       -0.190638   -1.115153    0.629535
      3          6           0        1.040475   -0.224697    0.294463
      4          8           0       -1.373891    0.769106   -0.232078
      5          8           0        0.170789    1.200286    0.488428
      6          8           0        1.622700   -0.287447   -0.798231
      7          1           0        0.476264    1.755722   -0.262876
      8          1           0       -2.247530   -1.023410   -0.022719
      9          1           0       -1.022526   -0.919893   -1.369718
     10          1           0        1.627877   -0.011732    1.227686
     11          1           0        0.061655   -2.165877    0.459630
     12          1           0       -0.508837   -0.969579    1.667027
 ---------------------------------------------------------------------
                    Distance matrix (angstroms):
                    1          2          3          4          5
     1  C    0.000000
     2  C    1.537793   0.000000
     3  C    2.433345   1.555900   0.000000
     4  O    1.399154   2.385979   2.663466   0.000000
     5  O    2.469922   2.347722   1.680641   1.758147   0.000000
     6  O    2.950708   2.451899   1.239719   3.227443   2.444767
     7  H    2.953314   3.079461   2.133312   2.097006   0.982996
     8  H    1.101419   2.159782   3.398459   2.005041   3.324810
     9  H    1.096845   2.174208   2.740214   2.066494   3.061351
    10  H    3.356004   2.209597   1.123076   3.428006   2.034354
    11  H    2.193936   1.093865   2.180264   3.339667   3.368055
    12  H    2.179855   1.094912   2.199807   2.716237   2.561114
                    6          7          8          9         10
     6  O    0.000000
     7  H    2.403219   0.000000
     8  H    4.015189   3.898757   0.000000
     9  H    2.779173   3.260428   1.823666   0.000000
    10  H    2.044599   2.582999   4.195925   3.820458   0.000000
    11  H    2.747285   4.009097   2.621112   2.464638   2.771877
    12  H    3.329602   3.481698   2.425117   3.080287   2.382444
                   11         12
    11  H    0.000000
    12  H    1.792874   0.000000
 Symmetry turned off by external request.
 Stoichiometry    C3H6O3
 Framework group  C1[X(C3H6O3)]
 Deg. of freedom    30
 Full point group                 C1      NOp   1
 Rotational constants (GHZ):           5.4943357           3.4953500           2.8088172
 Standard basis: 6-31+G(d) (6D, 7F)
   126 basis functions,   216 primitive gaussians,   126 cartesian basis functions
    24 alpha electrons       24 beta electrons
       nuclear repulsion energy       255.5639429080 Hartrees.
 NAtoms=   12 NActive=   12 NUniq=   12 SFac= 1.00D+00 NAtFMM=   60 NAOKFM=F Big=F
 Integral buffers will be    131072 words long.
 Raffenetti 2 integral format.
 Two-electron integral symmetry is turned off.
 One-electron integrals computed using PRISM.
 NBasis=   126 RedAO= T EigKep=  1.32D-04  NBF=   126
 NBsUse=   126 1.00D-06 EigRej= -1.00D+00 NBFU=   126
 Initial guess from the checkpoint file:  "/scratch/bell/zhao922/YARP/paper-example/KHP-network/pp_0/IRC-folder/Gau-73429.chk"
 B after Tr=    -0.000391    0.000867   -0.000518
         Rot=    1.000000    0.000014    0.000014    0.000008 Ang=   0.00 deg.
 ExpMin= 4.38D-02 ExpMax= 5.48D+03 ExpMxC= 8.25D+02 IAcc=3 IRadAn=         5 AccDes= 0.00D+00
 Harris functional with IExCor=  402 and IRadAn=       5 diagonalized for initial guess.
 HarFok:  IExCor=  402 AccDes= 0.00D+00 IRadAn=         5 IDoV= 1 UseB2=F ITyADJ=14
 ICtDFT=  3500011 ScaDFX=  1.000000  1.000000  1.000000  1.000000
 FoFCou: FMM=F IPFlag=           0 FMFlag=      100000 FMFlg1=           0
         NFxFlg=           0 DoJE=T BraDBF=F KetDBF=T FulRan=T
         wScrn=  0.000000 ICntrl=       500 IOpCl=  0 I1Cent=   200000004 NGrid=           0
         NMat0=    1 NMatS0=      1 NMatT0=    0 NMatD0=    1 NMtDS0=    0 NMtDT0=    0
 Symmetry not used in FoFCou.
 Keep R1 ints in memory in canonical form, NReq=47237243.
 Requested convergence on RMS density matrix=1.00D-08 within 128 cycles.
 Requested convergence on MAX density matrix=1.00D-06.
 Requested convergence on             energy=1.00D-06.
 No special actions if energy rises.
 SCF Done:  E(RB3LYP) =  -343.443947538     A.U. after   14 cycles
            NFock= 14  Conv=0.36D-08     -V/T= 2.0092
 DoSCS=F DFT=T ScalE2(SS,OS)=  1.000000  1.000000
 Range of M.O.s used for correlation:     1   126
 NBasis=   126 NAE=    24 NBE=    24 NFC=     0 NFV=     0
 NROrb=    126 NOA=    24 NOB=    24 NVA=   102 NVB=   102

 **** Warning!!: The largest alpha MO coefficient is  0.32267939D+02


 **** Warning!!: The smallest alpha delta epsilon is  0.93034477D-01

 Symmetrizing basis deriv contribution to polar:
 IMax=3 JMax=2 DiffMx= 0.00D+00
 G2DrvN: will do    13 centers at a time, making    1 passes.
 Calling FoFCou, ICntrl=  3107 FMM=F I1Cent=   0 AccDes= 0.00D+00.
 End of G2Drv F.D. properties file   721 does not exist.
 End of G2Drv F.D. properties file   722 does not exist.
 End of G2Drv F.D. properties file   788 does not exist.
          IDoAtm=111111111111
          Differentiating once with respect to nuclear coordinates.
 Keep R1 ints in memory in canonical form, NReq=47193258.
          There are    39 degrees of freedom in the 1st order CPHF.  IDoFFX=6 NUNeed=     0.
     33 vectors produced by pass  0 Test12= 6.28D-15 2.56D-09 XBig12= 2.10D-01 2.18D-01.
 AX will form    33 AO Fock derivatives at one time.
     33 vectors produced by pass  1 Test12= 6.28D-15 2.56D-09 XBig12= 1.07D-01 6.27D-02.
     33 vectors produced by pass  2 Test12= 6.28D-15 2.56D-09 XBig12= 1.69D-03 5.20D-03.
     33 vectors produced by pass  3 Test12= 6.28D-15 2.56D-09 XBig12= 1.02D-05 6.52D-04.
     33 vectors produced by pass  4 Test12= 6.28D-15 2.56D-09 XBig12= 1.85D-08 2.49D-05.
     30 vectors produced by pass  5 Test12= 6.28D-15 2.56D-09 XBig12= 2.02D-11 6.83D-07.
      5 vectors produced by pass  6 Test12= 6.28D-15 2.56D-09 XBig12= 2.11D-14 1.94D-08.
 InvSVY:  IOpt=1 It=  1 EMax= 2.22D-15
 Solved reduced A of dimension   200 with    33 vectors.
 End of Minotr F.D. properties file   721 does not exist.
 End of Minotr F.D. properties file   722 does not exist.
 End of Minotr F.D. properties file   788 does not exist.
 Calling FoFJK, ICntrl=    100127 FMM=F ISym2X=0 I1Cent= 0 IOpClX= 0 NMat=1 NMatS=1 NMatT=0.
 -------------------------------------------------------------------
 Center     Atomic                   Forces (Hartrees/Bohr)
 Number     Number              X              Y              Z
 -------------------------------------------------------------------
      1        6           0.003158197   -0.002056067    0.002134147
      2        6           0.001734655   -0.001572886   -0.002348940
      3        6           0.010756225   -0.018018478    0.002382514
      4        8           0.018165469    0.010305533    0.009778723
      5        8          -0.032327778    0.010989516   -0.009016539
      6        8          -0.000143730   -0.001425077   -0.001107722
      7        1          -0.000984895   -0.000031848   -0.000211121
      8        1          -0.000206609    0.000950495   -0.000677526
      9        1          -0.000008732    0.000519422   -0.000022920
     10        1           0.000004014    0.000695758   -0.000690142
     11        1          -0.000441730   -0.000292286   -0.000056017
     12        1           0.000294915   -0.000064080   -0.000164457
 -------------------------------------------------------------------
 Cartesian Forces:  Max     0.032327778 RMS     0.007926908
 IRC-IRC-IRC-IRC-IRC-IRC-IRC-IRC-IRC-IRC-IRC-IRC-IRC-IRC-IRC-IRC-IRC-IRC
 Pt  3 Step number   1 out of a maximum of 100
 Modified Bulirsch-Stoer Extrapolation Cycles:
    EPS =    0.000010000000000
      PEZero:  N= 2 I= 1 D=  2.11D-03 Err=  9.01D-05
      PEZero:  N= 3 I= 2 D=  2.11D-03 Err=  5.98D-05
      PEZero:  N= 3 I= 1 D=  4.22D-03 Err=  3.80D-07
 Maximum DWI energy   std dev =  0.000005655 at pt    24
 Maximum DWI gradient std dev =  0.020248705 at pt    24
 CORRECTOR INTEGRATION CONVERGENCE:
   Recorrection delta-x convergence threshold:    0.010000
   Delta-x Convergence Met
 Point Number:   3          Path Number:   1
   CHANGE IN THE REACTION COORDINATE =    0.40547
   NET REACTION COORDINATE UP TO THIS POINT =    1.21569
  # OF POINTS ALONG THE PATH =   3
  # OF STEPS =   1

 Calculating another point on the path.
 IRC-IRC-IRC-IRC-IRC-IRC-IRC-IRC-IRC-IRC-IRC-IRC-IRC-IRC-IRC-IRC-IRC-IRC
                          Input orientation:                          
 ---------------------------------------------------------------------
 Center     Atomic      Atomic             Coordinates (Angstroms)
 Number     Number       Type             X           Y           Z
 ---------------------------------------------------------------------
      1          6           0       -1.268905   -0.624784   -0.341401
      2          6           0       -0.188180   -1.117376    0.626106
      3          6           0        1.055724   -0.250848    0.297538
      4          8           0       -1.354399    0.780201   -0.221508
      5          8           0        0.135825    1.212049    0.478828
      6          8           0        1.622470   -0.288881   -0.799448
      7          1           0        0.460581    1.757560   -0.271297
      8          1           0       -2.252579   -1.007736   -0.033678
      9          1           0       -1.022461   -0.910741   -1.370431
     10          1           0        1.633057    0.000046    1.223341
     11          1           0        0.054187   -2.171230    0.458664
     12          1           0       -0.504046   -0.970802    1.664545
 ---------------------------------------------------------------------
                    Distance matrix (angstroms):
                    1          2          3          4          5
     1  C    0.000000
     2  C    1.531888   0.000000
     3  C    2.439665   1.551169   0.000000
     4  O    1.412681   2.383132   2.672296   0.000000
     5  O    2.453569   2.356458   1.737569   1.702273   0.000000
     6  O    2.946639   2.448890   1.235324   3.215385   2.469189
     7  H    2.944758   3.080825   2.170592   2.062005   0.982719
     8  H    1.099528   2.170041   3.409905   2.009659   3.300695
     9  H    1.096088   2.173680   2.745257   2.071109   3.044278
    10  H    3.355624   2.218610   1.119542   3.408977   2.065176
    11  H    2.186817   1.094251   2.171843   3.340314   3.384324
    12  H    2.174524   1.095267   2.195432   2.710407   2.565189
                    6          7          8          9         10
     6  O    0.000000
     7  H    2.411815   0.000000
     8  H    4.014868   3.881310   0.000000
     9  H    2.776399   3.244587   1.819205   0.000000
    10  H    2.043347   2.587952   4.206411   3.822168   0.000000
    11  H    2.754196   4.016639   2.630074   2.468521   2.791416
    12  H    3.325409   3.481659   2.437764   3.079520   2.388392
                   11         12
    11  H    0.000000
    12  H    1.790754   0.000000
 Symmetry turned off by external request.
 Stoichiometry    C3H6O3
 Framework group  C1[X(C3H6O3)]
 Deg. of freedom    30
 Full point group                 C1      NOp   1
 Rotational constants (GHZ):           5.4780289           3.5111802           2.8051726
 Standard basis: 6-31+G(d) (6D, 7F)
   126 basis functions,   216 primitive gaussians,   126 cartesian basis functions
    24 alpha electrons       24 beta electrons
       nuclear repulsion energy       255.5969229374 Hartrees.
 NAtoms=   12 NActive=   12 NUniq=   12 SFac= 1.00D+00 NAtFMM=   60 NAOKFM=F Big=F
 Integral buffers will be    131072 words long.
 Raffenetti 2 integral format.
 Two-electron integral symmetry is turned off.
 One-electron integrals computed using PRISM.
 NBasis=   126 RedAO= T EigKep=  1.27D-04  NBF=   126
 NBsUse=   126 1.00D-06 EigRej= -1.00D+00 NBFU=   126
 Initial guess from the checkpoint file:  "/scratch/bell/zhao922/YARP/paper-example/KHP-network/pp_0/IRC-folder/Gau-73429.chk"
 B after Tr=    -0.000352    0.000624   -0.000542
         Rot=    1.000000   -0.000020   -0.000001    0.000031 Ang=  -0.00 deg.
 ExpMin= 4.38D-02 ExpMax= 5.48D+03 ExpMxC= 8.25D+02 IAcc=3 IRadAn=         5 AccDes= 0.00D+00
 Harris functional with IExCor=  402 and IRadAn=       5 diagonalized for initial guess.
 HarFok:  IExCor=  402 AccDes= 0.00D+00 IRadAn=         5 IDoV= 1 UseB2=F ITyADJ=14
 ICtDFT=  3500011 ScaDFX=  1.000000  1.000000  1.000000  1.000000
 FoFCou: FMM=F IPFlag=           0 FMFlag=      100000 FMFlg1=           0
         NFxFlg=           0 DoJE=T BraDBF=F KetDBF=T FulRan=T
         wScrn=  0.000000 ICntrl=       500 IOpCl=  0 I1Cent=   200000004 NGrid=           0
         NMat0=    1 NMatS0=      1 NMatT0=    0 NMatD0=    1 NMtDS0=    0 NMtDT0=    0
 Symmetry not used in FoFCou.
 Keep R1 ints in memory in canonical form, NReq=47237243.
 Requested convergence on RMS density matrix=1.00D-08 within 128 cycles.
 Requested convergence on MAX density matrix=1.00D-06.
 Requested convergence on             energy=1.00D-06.
 No special actions if energy rises.
 SCF Done:  E(RB3LYP) =  -343.449892478     A.U. after   13 cycles
            NFock= 13  Conv=0.41D-08     -V/T= 2.0091
 DoSCS=F DFT=T ScalE2(SS,OS)=  1.000000  1.000000
 Range of M.O.s used for correlation:     1   126
 NBasis=   126 NAE=    24 NBE=    24 NFC=     0 NFV=     0
 NROrb=    126 NOA=    24 NOB=    24 NVA=   102 NVB=   102

 **** Warning!!: The largest alpha MO coefficient is  0.32735873D+02

 Symmetrizing basis deriv contribution to polar:
 IMax=3 JMax=2 DiffMx= 0.00D+00
 G2DrvN: will do    13 centers at a time, making    1 passes.
 Calling FoFCou, ICntrl=  3107 FMM=F I1Cent=   0 AccDes= 0.00D+00.
 End of G2Drv F.D. properties file   721 does not exist.
 End of G2Drv F.D. properties file   722 does not exist.
 End of G2Drv F.D. properties file   788 does not exist.
          IDoAtm=111111111111
          Differentiating once with respect to nuclear coordinates.
 Keep R1 ints in memory in canonical form, NReq=47193258.
          There are    39 degrees of freedom in the 1st order CPHF.  IDoFFX=6 NUNeed=     0.
     33 vectors produced by pass  0 Test12= 6.28D-15 2.56D-09 XBig12= 1.93D-01 1.69D-01.
 AX will form    33 AO Fock derivatives at one time.
     33 vectors produced by pass  1 Test12= 6.28D-15 2.56D-09 XBig12= 8.59D-02 7.12D-02.
     33 vectors produced by pass  2 Test12= 6.28D-15 2.56D-09 XBig12= 1.60D-03 7.56D-03.
     33 vectors produced by pass  3 Test12= 6.28D-15 2.56D-09 XBig12= 9.27D-06 6.50D-04.
     33 vectors produced by pass  4 Test12= 6.28D-15 2.56D-09 XBig12= 1.80D-08 2.65D-05.
     29 vectors produced by pass  5 Test12= 6.28D-15 2.56D-09 XBig12= 1.97D-11 6.51D-07.
      3 vectors produced by pass  6 Test12= 6.28D-15 2.56D-09 XBig12= 2.08D-14 2.18D-08.
 InvSVY:  IOpt=1 It=  1 EMax= 2.00D-15
 Solved reduced A of dimension   197 with    33 vectors.
 End of Minotr F.D. properties file   721 does not exist.
 End of Minotr F.D. properties file   722 does not exist.
 End of Minotr F.D. properties file   788 does not exist.
 Calling FoFJK, ICntrl=    100127 FMM=F ISym2X=0 I1Cent= 0 IOpClX= 0 NMat=1 NMatS=1 NMatT=0.
 -------------------------------------------------------------------
 Center     Atomic                   Forces (Hartrees/Bohr)
 Number     Number              X              Y              Z
 -------------------------------------------------------------------
      1        6           0.004463692   -0.002181466    0.002766448
      2        6           0.002463166   -0.002489710   -0.003087304
      3        6           0.014156324   -0.023672308    0.003514279
      4        8           0.024002395    0.013896589    0.013143859
      5        8          -0.043519331    0.014812513   -0.012493745
      6        8          -0.000193611   -0.001941902   -0.001607593
      7        1          -0.001382205   -0.000105067   -0.000436697
      8        1          -0.000228385    0.001143277   -0.000845520
      9        1           0.000019878    0.000673826   -0.000054041
     10        1           0.000393128    0.000397523   -0.000617098
     11        1          -0.000628719   -0.000441454   -0.000064271
     12        1           0.000453668   -0.000091822   -0.000218317
 -------------------------------------------------------------------
 Cartesian Forces:  Max     0.043519331 RMS     0.010608274
 IRC-IRC-IRC-IRC-IRC-IRC-IRC-IRC-IRC-IRC-IRC-IRC-IRC-IRC-IRC-IRC-IRC-IRC
 Pt  4 Step number   1 out of a maximum of 100
 Modified Bulirsch-Stoer Extrapolation Cycles:
    EPS =    0.000010000000000
      PEZero:  N= 2 I= 1 D=  2.11D-03 Err=  8.37D-05
      PEZero:  N= 3 I= 2 D=  2.11D-03 Err=  5.56D-05
      PEZero:  N= 3 I= 1 D=  4.22D-03 Err=  2.95D-07
 Maximum DWI energy   std dev =  0.000018850 at pt    27
 Maximum DWI gradient std dev =  0.009625308 at pt    24
 CORRECTOR INTEGRATION CONVERGENCE:
   Recorrection delta-x convergence threshold:    0.010000
   Delta-x Convergence Met
 Point Number:   4          Path Number:   1
   CHANGE IN THE REACTION COORDINATE =    0.40550
   NET REACTION COORDINATE UP TO THIS POINT =    1.62119
  # OF POINTS ALONG THE PATH =   4
  # OF STEPS =   1

 Calculating another point on the path.
 IRC-IRC-IRC-IRC-IRC-IRC-IRC-IRC-IRC-IRC-IRC-IRC-IRC-IRC-IRC-IRC-IRC-IRC
                          Input orientation:                          
 ---------------------------------------------------------------------
 Center     Atomic      Atomic             Coordinates (Angstroms)
 Number     Number       Type             X           Y           Z
 ---------------------------------------------------------------------
      1          6           0       -1.263871   -0.626879   -0.338453
      2          6           0       -0.185426   -1.120194    0.622774
      3          6           0        1.070823   -0.276307    0.301179
      4          8           0       -1.335174    0.791475   -0.210869
      5          8           0        0.100527    1.223906    0.468744
      6          8           0        1.622263   -0.290457   -0.800679
      7          1           0        0.443821    1.757813   -0.280575
      8          1           0       -2.255937   -0.993599   -0.043966
      9          1           0       -1.021948   -0.901753   -1.371028
     10          1           0        1.640649    0.003652    1.218804
     11          1           0        0.046197   -2.177257    0.457645
     12          1           0       -0.498194   -0.972233    1.662210
 ---------------------------------------------------------------------
                    Distance matrix (angstroms):
                    1          2          3          4          5
     1  C    0.000000
     2  C    1.526551   0.000000
     3  C    2.445981   1.547168   0.000000
     4  O    1.425865   2.381461   2.681636   0.000000
     5  O    2.436915   2.366495   1.794489   1.646240   0.000000
     6  O    2.942210   2.445899   1.232224   3.203886   2.494074
     7  H    2.933652   3.081381   2.206629   2.025707   0.982031
     8  H    1.097907   2.178895   3.420666   2.015478   3.276144
     9  H    1.095579   2.173185   2.750845   2.076319   3.027067
    10  H    3.355422   2.225496   1.115848   3.394135   2.103232
    11  H    2.180303   1.094669   2.165168   3.341926   3.401615
    12  H    2.169835   1.095511   2.190555   2.705481   2.570186
                    6          7          8          9         10
     6  O    0.000000
     7  H    2.419637   0.000000
     8  H    4.013410   3.861986   0.000000
     9  H    2.773236   3.226586   1.814457   0.000000
    10  H    2.040870   2.599541   4.215742   3.823142   0.000000
    11  H    2.761771   4.023412   2.636756   2.472224   2.806779
    12  H    3.320689   3.480654   2.449725   3.078931   2.392407
                   11         12
    11  H    0.000000
    12  H    1.788693   0.000000
 Symmetry turned off by external request.
 Stoichiometry    C3H6O3
 Framework group  C1[X(C3H6O3)]
 Deg. of freedom    30
 Full point group                 C1      NOp   1
 Rotational constants (GHZ):           5.4646689           3.5235399           2.8000779
 Standard basis: 6-31+G(d) (6D, 7F)
   126 basis functions,   216 primitive gaussians,   126 cartesian basis functions
    24 alpha electrons       24 beta electrons
       nuclear repulsion energy       255.6718945915 Hartrees.
 NAtoms=   12 NActive=   12 NUniq=   12 SFac= 1.00D+00 NAtFMM=   60 NAOKFM=F Big=F
 Integral buffers will be    131072 words long.
 Raffenetti 2 integral format.
 Two-electron integral symmetry is turned off.
 One-electron integrals computed using PRISM.
 NBasis=   126 RedAO= T EigKep=  1.23D-04  NBF=   126
 NBsUse=   126 1.00D-06 EigRej= -1.00D+00 NBFU=   126
 Initial guess from the checkpoint file:  "/scratch/bell/zhao922/YARP/paper-example/KHP-network/pp_0/IRC-folder/Gau-73429.chk"
 B after Tr=    -0.000273    0.000384   -0.000542
         Rot=    1.000000   -0.000053   -0.000019    0.000048 Ang=  -0.01 deg.
 ExpMin= 4.38D-02 ExpMax= 5.48D+03 ExpMxC= 8.25D+02 IAcc=3 IRadAn=         5 AccDes= 0.00D+00
 Harris functional with IExCor=  402 and IRadAn=       5 diagonalized for initial guess.
 HarFok:  IExCor=  402 AccDes= 0.00D+00 IRadAn=         5 IDoV= 1 UseB2=F ITyADJ=14
 ICtDFT=  3500011 ScaDFX=  1.000000  1.000000  1.000000  1.000000
 FoFCou: FMM=F IPFlag=           0 FMFlag=      100000 FMFlg1=           0
         NFxFlg=           0 DoJE=T BraDBF=F KetDBF=T FulRan=T
         wScrn=  0.000000 ICntrl=       500 IOpCl=  0 I1Cent=   200000004 NGrid=           0
         NMat0=    1 NMatS0=      1 NMatT0=    0 NMatD0=    1 NMtDS0=    0 NMtDT0=    0
 Symmetry not used in FoFCou.
 Keep R1 ints in memory in canonical form, NReq=47237243.
 Requested convergence on RMS density matrix=1.00D-08 within 128 cycles.
 Requested convergence on MAX density matrix=1.00D-06.
 Requested convergence on             energy=1.00D-06.
 No special actions if energy rises.
 SCF Done:  E(RB3LYP) =  -343.457134098     A.U. after   12 cycles
            NFock= 12  Conv=0.72D-08     -V/T= 2.0091
 DoSCS=F DFT=T ScalE2(SS,OS)=  1.000000  1.000000
 Range of M.O.s used for correlation:     1   126
 NBasis=   126 NAE=    24 NBE=    24 NFC=     0 NFV=     0
 NROrb=    126 NOA=    24 NOB=    24 NVA=   102 NVB=   102

 **** Warning!!: The largest alpha MO coefficient is  0.32982564D+02

 Symmetrizing basis deriv contribution to polar:
 IMax=3 JMax=2 DiffMx= 0.00D+00
 G2DrvN: will do    13 centers at a time, making    1 passes.
 Calling FoFCou, ICntrl=  3107 FMM=F I1Cent=   0 AccDes= 0.00D+00.
 End of G2Drv F.D. properties file   721 does not exist.
 End of G2Drv F.D. properties file   722 does not exist.
 End of G2Drv F.D. properties file   788 does not exist.
          IDoAtm=111111111111
          Differentiating once with respect to nuclear coordinates.
 Keep R1 ints in memory in canonical form, NReq=47193258.
          There are    39 degrees of freedom in the 1st order CPHF.  IDoFFX=6 NUNeed=     0.
     33 vectors produced by pass  0 Test12= 6.28D-15 2.56D-09 XBig12= 1.85D-01 1.28D-01.
 AX will form    33 AO Fock derivatives at one time.
     33 vectors produced by pass  1 Test12= 6.28D-15 2.56D-09 XBig12= 6.06D-02 6.20D-02.
     33 vectors produced by pass  2 Test12= 6.28D-15 2.56D-09 XBig12= 1.32D-03 7.84D-03.
     33 vectors produced by pass  3 Test12= 6.28D-15 2.56D-09 XBig12= 7.02D-06 5.46D-04.
     33 vectors produced by pass  4 Test12= 6.28D-15 2.56D-09 XBig12= 1.45D-08 2.37D-05.
     27 vectors produced by pass  5 Test12= 6.28D-15 2.56D-09 XBig12= 1.59D-11 5.36D-07.
      2 vectors produced by pass  6 Test12= 6.28D-15 2.56D-09 XBig12= 1.50D-14 1.83D-08.
 InvSVY:  IOpt=1 It=  1 EMax= 2.22D-15
 Solved reduced A of dimension   194 with    33 vectors.
 End of Minotr F.D. properties file   721 does not exist.
 End of Minotr F.D. properties file   722 does not exist.
 End of Minotr F.D. properties file   788 does not exist.
 Calling FoFJK, ICntrl=    100127 FMM=F ISym2X=0 I1Cent= 0 IOpClX= 0 NMat=1 NMatS=1 NMatT=0.
 -------------------------------------------------------------------
 Center     Atomic                   Forces (Hartrees/Bohr)
 Number     Number              X              Y              Z
 -------------------------------------------------------------------
      1        6           0.005504755   -0.001191671    0.003031199
      2        6           0.003192703   -0.003588359   -0.003285524
      3        6           0.015705074   -0.026314949    0.003830469
      4        8           0.026021732    0.015622538    0.014661601
      5        8          -0.049254357    0.017114472   -0.014419095
      6        8          -0.000150892   -0.002530472   -0.001574545
      7        1          -0.001609603   -0.000213185   -0.000588921
      8        1          -0.000123852    0.001137505   -0.000829437
      9        1           0.000091246    0.000753534   -0.000057194
     10        1           0.000765004   -0.000071669   -0.000453778
     11        1          -0.000751254   -0.000570376   -0.000084002
     12        1           0.000609441   -0.000147368   -0.000230774
 -------------------------------------------------------------------
 Cartesian Forces:  Max     0.049254357 RMS     0.011911877
 IRC-IRC-IRC-IRC-IRC-IRC-IRC-IRC-IRC-IRC-IRC-IRC-IRC-IRC-IRC-IRC-IRC-IRC
 Pt  5 Step number   1 out of a maximum of 100
 Modified Bulirsch-Stoer Extrapolation Cycles:
    EPS =    0.000010000000000
      PEZero:  N= 2 I= 1 D=  2.11D-03 Err=  6.92D-05
      PEZero:  N= 3 I= 2 D=  2.11D-03 Err=  4.59D-05
      PEZero:  N= 3 I= 1 D=  4.22D-03 Err=  2.42D-07
 Maximum DWI energy   std dev =  0.000025799 at pt    28
 Maximum DWI gradient std dev =  0.006054504 at pt    47
 CORRECTOR INTEGRATION CONVERGENCE:
   Recorrection delta-x convergence threshold:    0.010000
   Delta-x Convergence Met
 Point Number:   5          Path Number:   1
   CHANGE IN THE REACTION COORDINATE =    0.40552
   NET REACTION COORDINATE UP TO THIS POINT =    2.02671
  # OF POINTS ALONG THE PATH =   5
  # OF STEPS =   1

 Calculating another point on the path.
 IRC-IRC-IRC-IRC-IRC-IRC-IRC-IRC-IRC-IRC-IRC-IRC-IRC-IRC-IRC-IRC-IRC-IRC
                          Input orientation:                          
 ---------------------------------------------------------------------
 Center     Atomic      Atomic             Coordinates (Angstroms)
 Number     Number       Type             X           Y           Z
 ---------------------------------------------------------------------
      1          6           0       -1.258237   -0.627424   -0.335553
      2          6           0       -0.182095   -1.123955    0.619651
      3          6           0        1.085862   -0.301665    0.304793
      4          8           0       -1.317038    0.802701   -0.200417
      5          8           0        0.064940    1.236409    0.458487
      6          8           0        1.622238   -0.292477   -0.801748
      7          1           0        0.426417    1.756837   -0.290403
      8          1           0       -2.256964   -0.981166   -0.052799
      9          1           0       -1.020487   -0.892667   -1.371369
     10          1           0        1.650552    0.000974    1.214695
     11          1           0        0.037453   -2.184348    0.456298
     12          1           0       -0.490823   -0.974306    1.660151
 ---------------------------------------------------------------------
                    Distance matrix (angstroms):
                    1          2          3          4          5
     1  C    0.000000
     2  C    1.522183   0.000000
     3  C    2.451726   1.543701   0.000000
     4  O    1.437698   2.381725   2.692358   0.000000
     5  O    2.419746   2.378722   1.852450   1.591264   0.000000
     6  O    2.937118   2.442815   1.229722   3.193800   2.520091
     7  H    2.919726   3.081794   2.241999   1.989500   0.980993
     8  H    1.096603   2.185786   3.429880   2.021740   3.251198
     9  H    1.095351   2.172684   2.755995   2.081669   3.009898
    10  H    3.355474   2.231174   1.112828   3.384065   2.147629
    11  H    2.174823   1.095134   2.160234   3.344904   3.420868
    12  H    2.166123   1.095604   2.185263   2.702240   2.576844
                    6          7          8          9         10
     6  O    0.000000
     7  H    2.427169   0.000000
     8  H    4.010414   3.841049   0.000000
     9  H    2.769239   3.206539   1.809789   0.000000
    10  H    2.037881   2.616655   4.223721   3.823711   0.000000
    11  H    2.770090   4.030112   2.640298   2.475488   2.820086
    12  H    3.315247   3.479243   2.460386   3.078526   2.394804
                   11         12
    11  H    0.000000
    12  H    1.786768   0.000000
 Symmetry turned off by external request.
 Stoichiometry    C3H6O3
 Framework group  C1[X(C3H6O3)]
 Deg. of freedom    30
 Full point group                 C1      NOp   1
 Rotational constants (GHZ):           5.4541844           3.5309978           2.7927118
 Standard basis: 6-31+G(d) (6D, 7F)
   126 basis functions,   216 primitive gaussians,   126 cartesian basis functions
    24 alpha electrons       24 beta electrons
       nuclear repulsion energy       255.7714841380 Hartrees.
 NAtoms=   12 NActive=   12 NUniq=   12 SFac= 1.00D+00 NAtFMM=   60 NAOKFM=F Big=F
 Integral buffers will be    131072 words long.
 Raffenetti 2 integral format.
 Two-electron integral symmetry is turned off.
 One-electron integrals computed using PRISM.
 NBasis=   126 RedAO= T EigKep=  1.19D-04  NBF=   126
 NBsUse=   126 1.00D-06 EigRej= -1.00D+00 NBFU=   126
 Initial guess from the checkpoint file:  "/scratch/bell/zhao922/YARP/paper-example/KHP-network/pp_0/IRC-folder/Gau-73429.chk"
 B after Tr=    -0.000162    0.000174   -0.000510
         Rot=    1.000000   -0.000082   -0.000040    0.000056 Ang=  -0.01 deg.
 ExpMin= 4.38D-02 ExpMax= 5.48D+03 ExpMxC= 8.25D+02 IAcc=3 IRadAn=         5 AccDes= 0.00D+00
 Harris functional with IExCor=  402 and IRadAn=       5 diagonalized for initial guess.
 HarFok:  IExCor=  402 AccDes= 0.00D+00 IRadAn=         5 IDoV= 1 UseB2=F ITyADJ=14
 ICtDFT=  3500011 ScaDFX=  1.000000  1.000000  1.000000  1.000000
 FoFCou: FMM=F IPFlag=           0 FMFlag=      100000 FMFlg1=           0
         NFxFlg=           0 DoJE=T BraDBF=F KetDBF=T FulRan=T
         wScrn=  0.000000 ICntrl=       500 IOpCl=  0 I1Cent=   200000004 NGrid=           0
         NMat0=    1 NMatS0=      1 NMatT0=    0 NMatD0=    1 NMtDS0=    0 NMtDT0=    0
 Symmetry not used in FoFCou.
 Keep R1 ints in memory in canonical form, NReq=47237243.
 Requested convergence on RMS density matrix=1.00D-08 within 128 cycles.
 Requested convergence on MAX density matrix=1.00D-06.
 Requested convergence on             energy=1.00D-06.
 No special actions if energy rises.
 SCF Done:  E(RB3LYP) =  -343.464664650     A.U. after   12 cycles
            NFock= 12  Conv=0.45D-08     -V/T= 2.0091
 DoSCS=F DFT=T ScalE2(SS,OS)=  1.000000  1.000000
 Range of M.O.s used for correlation:     1   126
 NBasis=   126 NAE=    24 NBE=    24 NFC=     0 NFV=     0
 NROrb=    126 NOA=    24 NOB=    24 NVA=   102 NVB=   102

 **** Warning!!: The largest alpha MO coefficient is  0.33112470D+02

 Symmetrizing basis deriv contribution to polar:
 IMax=3 JMax=2 DiffMx= 0.00D+00
 G2DrvN: will do    13 centers at a time, making    1 passes.
 Calling FoFCou, ICntrl=  3107 FMM=F I1Cent=   0 AccDes= 0.00D+00.
 End of G2Drv F.D. properties file   721 does not exist.
 End of G2Drv F.D. properties file   722 does not exist.
 End of G2Drv F.D. properties file   788 does not exist.
          IDoAtm=111111111111
          Differentiating once with respect to nuclear coordinates.
 Keep R1 ints in memory in canonical form, NReq=47193258.
          There are    39 degrees of freedom in the 1st order CPHF.  IDoFFX=6 NUNeed=     0.
     33 vectors produced by pass  0 Test12= 6.28D-15 2.56D-09 XBig12= 1.75D-01 1.23D-01.
 AX will form    33 AO Fock derivatives at one time.
     33 vectors produced by pass  1 Test12= 6.28D-15 2.56D-09 XBig12= 4.36D-02 5.37D-02.
     33 vectors produced by pass  2 Test12= 6.28D-15 2.56D-09 XBig12= 1.00D-03 7.03D-03.
[...]
  58                   -0.24577  -0.81110  -0.65279  -1.39672   1.87601
  59                   -0.27794  -0.78754  -0.61327  -1.40100   1.88792
  60                   -0.30712  -0.76803  -0.57369  -1.40427   1.89652
  61                   -0.33258  -0.75266  -0.53521  -1.40658   1.90183
  62                   -0.35430  -0.74096  -0.49862  -1.40812   1.90361
  63                   -0.37274  -0.73222  -0.46438  -1.40916   1.90120
  64                   -0.38808  -0.72625  -0.43299  -1.40999   1.89346
  65                   -0.40005  -0.72370  -0.40494  -1.41097   1.87895
  66                   -0.40744  -0.72614  -0.38079  -1.41224   1.85727
  67                   -0.41004  -0.73407  -0.35978  -1.41374   1.83020
  68                   -0.40911  -0.74625  -0.34001  -1.41513   1.80115
                          Y10       Z10       X11       Y11       Z11
   1                    0.71315   0.61904  -0.23220  -2.12071   0.29178
   2                    0.65846   0.65508  -0.21096  -2.10562   0.32734
   3                    0.59829   0.69672  -0.19218  -2.09299   0.35930
   4                    0.53374   0.74261  -0.17559  -2.08263   0.38725
   5                    0.46605   0.79117  -0.16070  -2.07417   0.41113
   6                    0.39650   0.84086  -0.14694  -2.06717   0.43105
   7                    0.32643   0.89016  -0.13375  -2.06118   0.44721
   8                    0.25704   0.93773  -0.12066  -2.05587   0.45982
   9                    0.18942   0.98244  -0.10728  -2.05096   0.46913
  10                    0.12462   1.02338  -0.09327  -2.04619   0.47539
  11                    0.06345   1.05990  -0.07838  -2.04131   0.47894
  12                    0.00655   1.09167  -0.06245  -2.03610   0.48008
  13                   -0.04578   1.11870  -0.04538  -2.03039   0.47913
  14                   -0.09356   1.14123  -0.02722  -2.02413   0.47635
  15                   -0.13711   1.15973  -0.00812  -2.01736   0.47198
  16                   -0.17697   1.17471   0.01170  -2.01025   0.46623
  17                   -0.21381   1.18667   0.03199  -2.00304   0.45938
  18                   -0.24829   1.19602   0.05244  -1.99606   0.45187
  19                   -0.28101   1.20302   0.07257  -1.98998   0.44431
  20                   -0.31239   1.20780   0.09150  -1.98596   0.43758
  21                   -0.34243   1.21041   0.10776  -1.98584   0.43285
  22                   -0.37047   1.21103   0.11893  -1.99237   0.43171
  23                   -0.39495   1.21024   0.12114  -2.00919   0.43615
  24                   -0.41397   1.20913   0.10999  -2.03808   0.44694
  25                   -0.42688   1.20867   0.08495  -2.07423   0.46189
  26                   -0.43505   1.20915   0.05165  -2.10903   0.47763
  27                   -0.44053   1.21052   0.01805  -2.13665   0.49204
  28                   -0.44485   1.21274  -0.00888  -2.15537   0.50426
  29                   -0.44862   1.21569  -0.02519  -2.16605   0.51425
  30                   -0.45152   1.21915  -0.03042  -2.17032   0.52245
  31                   -0.45246   1.22284  -0.02542  -2.16918   0.52891
  32                   -0.44990   1.22633  -0.01238  -2.16364   0.53299
  33                   -0.44238   1.22903   0.00505  -2.15563   0.53391
  34                   -0.42802   1.23036   0.02401  -2.14738   0.53097
  35                   -0.40471   1.23100   0.04230  -2.14126   0.52367
  36                   -0.36984   1.23186   0.05774  -2.13870   0.51204
  37                   -0.32550   1.23325   0.06926  -2.13895   0.49878
  38                   -0.27473   1.23463   0.07713  -2.14069   0.48650
  39                   -0.21998   1.23553   0.08144  -2.14339   0.47661
  40                   -0.16459   1.23574   0.08224  -2.14695   0.46943
  41                   -0.11279   1.23496   0.07971  -2.15121   0.46504
  42                   -0.07000   1.23339   0.07480  -2.15594   0.46236
  43                   -0.03589   1.23057   0.06856  -2.16084   0.46075
  44                   -0.01366   1.22707   0.06158  -2.16590   0.45964
  45                   -0.00129   1.22296   0.05409  -2.17130   0.45868
  46                    0.00282   1.21868   0.04609  -2.17737   0.45767
  47                    0.00046   1.21478   0.03733  -2.18445   0.45631
  48                   -0.00755   1.21158   0.02735  -2.19281   0.45405
  49                   -0.02215   1.20922   0.01557  -2.20243   0.44997
  50                   -0.04506   1.20773   0.00211  -2.21249   0.44335
  51                   -0.07604   1.20698  -0.01146  -2.22140   0.43497
  52                   -0.11293   1.20659  -0.02383  -2.22832   0.42690
  53                   -0.15356   1.20628  -0.03498  -2.23323   0.42095
  54                   -0.19590   1.20600  -0.04547  -2.23625   0.41799
  55                   -0.23797   1.20589  -0.05561  -2.23754   0.41784
  56                   -0.27808   1.20620  -0.06537  -2.23745   0.41926
  57                   -0.31499   1.20717  -0.07449  -2.23646   0.42044
  58                   -0.34797   1.20893  -0.08275  -2.23507   0.41957
  59                   -0.37647   1.21147  -0.08992  -2.23367   0.41528
  60                   -0.39965   1.21465  -0.09580  -2.23246   0.40674
  61                   -0.41604   1.21821  -0.10014  -2.23144   0.39370
  62                   -0.42313   1.22171  -0.10264  -2.23042   0.37636
  63                   -0.41727   1.22449  -0.10291  -2.22908   0.35513
  64                   -0.39451   1.22555  -0.10051  -2.22709   0.33025
  65                   -0.35227   1.22346  -0.09515  -2.22420   0.30188
  66                   -0.29342   1.21689  -0.08721  -2.22049   0.27013
  67                   -0.22688   1.20570  -0.07797  -2.21628   0.23564
  68                   -0.16291   1.19132  -0.06899  -2.21201   0.19923
                          X12       Y12       Z12
   1                   -0.81052  -0.97033   1.53319
   2                   -0.82420  -0.94542   1.54563
   3                   -0.83596  -0.92398   1.55634
   4                   -0.84513  -0.90584   1.56550
   5                   -0.85124  -0.89056   1.57328
   6                   -0.85395  -0.87755   1.57984
   7                   -0.85303  -0.86623   1.58532
   8                   -0.84818  -0.85597   1.58974
   9                   -0.83918  -0.84627   1.59315
  10                   -0.82601  -0.83677   1.59562
  11                   -0.80877  -0.82720   1.59727
  12                   -0.78778  -0.81738   1.59818
  13                   -0.76347  -0.80725   1.59848
  14                   -0.73630  -0.79681   1.59826
  15                   -0.70663  -0.78607   1.59759
  16                   -0.67477  -0.77508   1.59652
  17                   -0.64102  -0.76382   1.59507
  18                   -0.60581  -0.75227   1.59329
  19                   -0.56980  -0.74055   1.59138
  20                   -0.53393  -0.72923   1.58993
  21                   -0.49977  -0.71960   1.59022
  22                   -0.47023  -0.71397   1.59435
  23                   -0.45046  -0.71527   1.60491
  24                   -0.44683  -0.72525   1.62271
  25                   -0.46091  -0.74244   1.64410
  26                   -0.48684  -0.76318   1.66354
  27                   -0.51638  -0.78418   1.67797
  28                   -0.54273  -0.80302   1.68726
  29                   -0.56194  -0.81844   1.69289
  30                   -0.57337  -0.83072   1.69636
  31                   -0.57761  -0.84067   1.69838
  32                   -0.57596  -0.84910   1.69901
  33                   -0.57039  -0.85710   1.69826
  34                   -0.56251  -0.86620   1.69640
  35                   -0.55341  -0.87867   1.69396
  36                   -0.54440  -0.89516   1.69130
  37                   -0.53677  -0.91328   1.68849
  38                   -0.53082  -0.93021   1.68548
  39                   -0.52633  -0.94424   1.68225
  40                   -0.52282  -0.95483   1.67894
  41                   -0.51973  -0.96157   1.67564
  42                   -0.51638  -0.96567   1.67260
  43                   -0.51281  -0.96803   1.66972
  44                   -0.50868  -0.96952   1.66706
  45                   -0.50386  -0.97078   1.66455
  46                   -0.49799  -0.97224   1.66220
  47                   -0.49066  -0.97435   1.66015
  48                   -0.48154  -0.97772   1.65854
  49                   -0.47030  -0.98309   1.65752
  50                   -0.45724  -0.99080   1.65708
  51                   -0.44400  -0.99965   1.65688
  52                   -0.43220  -1.00735   1.65643
  53                   -0.42267  -1.01189   1.65540
  54                   -0.41569  -1.01204   1.65364
  55                   -0.41122  -1.00781   1.65102
  56                   -0.40890  -1.00050   1.64746
  57                   -0.40811  -0.99222   1.64287
  58                   -0.40815  -0.98510   1.63730
  59                   -0.40840  -0.98081   1.63085
  60                   -0.40846  -0.98033   1.62367
  61                   -0.40812  -0.98400   1.61590
  62                   -0.40741  -0.99156   1.60765
  63                   -0.40655  -1.00243   1.59893
  64                   -0.40573  -1.01611   1.58968
  65                   -0.40508  -1.03227   1.57973
  66                   -0.40421  -1.05090   1.56890
  67                   -0.40263  -1.07166   1.55704
  68                   -0.40000  -1.09408   1.54406
 --------------------------------------------------------------------------
 
 Total number of points:                   67
 Total number of gradient calculations:    81
 Total number of Hessian calculations:     68
 IRC-IRC-IRC-IRC-IRC-IRC-IRC-IRC-IRC-IRC-IRC-IRC-IRC-IRC-IRC-IRC-IRC-IRC
                          Input orientation:                          
 ---------------------------------------------------------------------
 Center     Atomic      Atomic             Coordinates (Angstroms)
 Number     Number       Type             X           Y           Z
 ---------------------------------------------------------------------
      1          6           0       -1.612938   -0.689407   -0.448910
      2          6           0       -1.101528   -1.559718    0.660331
      3          6           0        1.762776    0.535637    0.169908
      4          8           0       -1.547089    0.530216   -0.466194
      5          8           0        0.847715    1.323445    0.742126
      6          8           0        1.557415   -0.270481   -0.713886
      7          1           0       -0.042860    1.161173    0.331446
      8          1           0       -1.869477   -2.292749    0.938563
      9          1           0       -2.082646   -1.214571   -1.305133
     10          1           0        2.751409    0.713205    0.620097
     11          1           0       -0.232037   -2.120991    0.291753
     12          1           0       -0.810603   -0.970350    1.533620
 ---------------------------------------------------------------------
                    Distance matrix (angstroms):
                    1          2          3          4          5
     1  C    0.000000
     2  C    1.499800   0.000000
     3  C    3.644051   3.582633   0.000000
     4  O    1.221521   2.415659   3.370439   0.000000
     5  O    3.394842   3.481216   1.336193   2.797201   0.000000
     6  O    3.208870   3.258923   1.213709   3.215651   2.272497
     7  H    2.549263   2.938059   1.917736   1.815775   0.994039
     8  H    2.135790   1.097494   4.667318   3.169607   4.527536
     9  H    1.108847   2.223684   4.475068   2.008711   4.384040
    10  H    4.707188   4.473580   1.100726   4.437409   2.002832
    11  H    2.122475   1.098586   3.324424   3.054953   3.637697
    12  H    2.157103   1.092989   3.278717   2.606408   2.939044
                    6          7          8          9         10
     6  O    0.000000
     7  H    2.388144   0.000000
     8  H    4.308566   3.954074   0.000000
     9  H    3.806694   3.533168   2.498416   0.000000
    10  H    2.042736   2.844633   5.521754   5.548957   0.000000
    11  H    2.763663   3.287851   1.768919   2.606989   4.128126
    12  H    3.338953   2.564770   1.795562   3.120297   4.044356
                   11         12
    11  H    0.000000
    12  H    1.789119   0.000000
 Symmetry turned off by external request.
 Stoichiometry    C3H6O3
 Framework group  C1[X(C3H6O3)]
 Deg. of freedom    30
 Full point group                 C1      NOp   1
 Rotational constants (GHZ):           5.2294312           2.0650817           1.8397147

 **********************************************************************

            Population analysis using the SCF Density.

 **********************************************************************

 Alpha  occ. eigenvalues --  -19.20504 -19.18973 -19.15898 -10.33054 -10.31340
 Alpha  occ. eigenvalues --  -10.21524  -1.11263  -1.08004  -1.02766  -0.77612
 Alpha  occ. eigenvalues --   -0.66607  -0.60820  -0.52267  -0.50450  -0.49268
 Alpha  occ. eigenvalues --   -0.47061  -0.46560  -0.44795  -0.41974  -0.40339
 Alpha  occ. eigenvalues --   -0.38629  -0.33095  -0.29624  -0.29050
 Alpha virt. eigenvalues --   -0.05967  -0.01216   0.00376   0.01792   0.03080
 Alpha virt. eigenvalues --    0.03640   0.04913   0.06143   0.06718   0.07359
 Alpha virt. eigenvalues --    0.07994   0.09758   0.11154   0.13813   0.15117
 Alpha virt. eigenvalues --    0.16929   0.17769   0.19342   0.19802   0.22072
 Alpha virt. eigenvalues --    0.22482   0.23970   0.24697   0.25663   0.26393
 Alpha virt. eigenvalues --    0.27857   0.29026   0.29680   0.30747   0.30970
 Alpha virt. eigenvalues --    0.32292   0.34269   0.35678   0.37914   0.43364
 Alpha virt. eigenvalues --    0.47238   0.61944   0.65033   0.66898   0.68794
 Alpha virt. eigenvalues --    0.69808   0.73305   0.76357   0.77124   0.82597
 Alpha virt. eigenvalues --    0.90569   0.91585   0.93315   1.00542   1.04145
 Alpha virt. eigenvalues --    1.08254   1.12843   1.13190   1.14689   1.16975
 Alpha virt. eigenvalues --    1.20889   1.22087   1.23586   1.24653   1.25822
 Alpha virt. eigenvalues --    1.31076   1.33302   1.35937   1.39862   1.42475
 Alpha virt. eigenvalues --    1.47580   1.50901   1.53010   1.56024   1.67889
 Alpha virt. eigenvalues --    1.70996   1.72833   1.75045   1.79209   1.84151
 Alpha virt. eigenvalues --    1.84913   1.85312   1.89057   1.90712   2.06763
 Alpha virt. eigenvalues --    2.09717   2.15614   2.17316   2.29171   2.33205
 Alpha virt. eigenvalues --    2.37485   2.42040   2.54089   2.55525   2.62642
 Alpha virt. eigenvalues --    2.64240   2.81028   2.84292   2.97211   2.99817
 Alpha virt. eigenvalues --    3.07646   4.10359   4.14793   4.17109   4.26667
 Alpha virt. eigenvalues --    4.37128   4.39232
          Condensed to atoms (all electrons):
               1          2          3          4          5          6
     1  C    4.835735   0.105576  -0.007299   0.467983  -0.046322   0.042997
     2  C    0.105576   5.779334  -0.002524  -0.107643   0.046299  -0.040557
     3  C   -0.007299  -0.002524   4.689486   0.002943   0.183203   0.421945
     4  O    0.467983  -0.107643   0.002943   8.070441  -0.014044  -0.007358
     5  O   -0.046322   0.046299   0.183203  -0.014044   8.527176  -0.122014
     6  O    0.042997  -0.040557   0.421945  -0.007358  -0.122014   8.205147
     7  H   -0.002596  -0.008421   0.000136   0.069237   0.118454   0.008503
     8  H   -0.035032   0.365635   0.000506   0.003654  -0.000076   0.000822
     9  H    0.353619  -0.075012   0.002075  -0.059455  -0.001208  -0.001646
    10  H    0.002008  -0.002105   0.419468  -0.000312  -0.115403  -0.058971
    11  H   -0.026591   0.367855  -0.000241  -0.001697  -0.000774  -0.002046
    12  H   -0.064893   0.405379  -0.000138   0.002312   0.000550  -0.001855
               7          8          9         10         11         12
     1  C   -0.002596  -0.035032   0.353619   0.002008  -0.026591  -0.064893
     2  C   -0.008421   0.365635  -0.075012  -0.002105   0.367855   0.405379
     3  C    0.000136   0.000506   0.002075   0.419468  -0.000241  -0.000138
     4  O    0.069237   0.003654  -0.059455  -0.000312  -0.001697   0.002312
     5  O    0.118454  -0.000076  -0.001208  -0.115403  -0.000774   0.000550
     6  O    0.008503   0.000822  -0.001646  -0.058971  -0.002046  -0.001855
     7  H    0.261776   0.000081   0.001010   0.006030   0.000033   0.001005
     8  H    0.000081   0.486028   0.000478   0.000001  -0.024138  -0.022444
     9  H    0.001010   0.000478   0.602757  -0.000002   0.001559   0.003488
    10  H    0.006030   0.000001  -0.000002   0.581523   0.000004  -0.000028
    11  H    0.000033  -0.024138   0.001559   0.000004   0.440578  -0.020464
    12  H    0.001005  -0.022444   0.003488  -0.000028  -0.020464   0.456934
 Mulliken charges:
               1
     1  C    0.374814
     2  C   -0.833817
     3  C    0.290439
     4  O   -0.426061
     5  O   -0.575839
     6  O   -0.444968
     7  H    0.544751
     8  H    0.224486
     9  H    0.172336
    10  H    0.167784
    11  H    0.265920
    12  H    0.240155
 Sum of Mulliken charges =  -0.00000
 Mulliken charges with hydrogens summed into heavy atoms:
               1
     1  C    0.547150
     2  C   -0.103256
     3  C    0.458223
     4  O   -0.426061
     5  O   -0.031088
     6  O   -0.444968
 APT charges:
               1
     1  C   -0.018949
     2  C   -1.295000
     3  C   -0.152217
     4  O   -0.498615
     5  O   -0.400832
     6  O   -0.541343
     7  H    0.446617
     8  H    0.645209
     9  H    0.518999
    10  H    0.623163
    11  H    0.369416
    12  H    0.303552
 Sum of APT charges =  -0.00000
 APT charges with hydrogens summed into heavy atoms:
               1
     1  C    0.500050
     2  C    0.023177
     3  C    0.470946
     4  O   -0.498615
     5  O    0.045786
     6  O   -0.541343
 Electronic spatial extent (au):  <R**2>=            692.4834
 Charge=             -0.0000 electrons
 Dipole moment (field-independent basis, Debye):
    X=             -1.1050    Y=             -2.2783    Z=              1.3238  Tot=              2.8573
 Quadrupole moment (field-independent basis, Debye-Ang):
   XX=            -33.2306   YY=            -35.4921   ZZ=            -37.8305
   XY=              6.0189   XZ=              2.0833   YZ=             -1.3082
 Traceless Quadrupole moment (field-independent basis, Debye-Ang):
   XX=              2.2871   YY=              0.0256   ZZ=             -2.3128
   XY=              6.0189   XZ=              2.0833   YZ=             -1.3082
 Octapole moment (field-independent basis, Debye-Ang**2):
  XXX=             10.8892  YYY=              2.8234  ZZZ=             -4.2936  XYY=             -3.3083
  XXY=              0.8268  XXZ=              5.1327  XZZ=             -2.1998  YZZ=              0.4154
  YYZ=             -3.4465  XYZ=             -4.3642
 Hexadecapole moment (field-independent basis, Debye-Ang**3):
 XXXX=           -461.8677 YYYY=           -265.0098 ZZZZ=           -124.8336 XXXY=            -45.3133
 XXXZ=              4.8613 YYYX=            -76.0540 YYYZ=             -7.4443 ZZZX=             -9.1180
 ZZZY=             -2.5074 XXYY=           -122.0621 XXZZ=           -104.5834 YYZZ=            -67.5865
 XXYZ=              0.4908 YYXZ=             -8.2474 ZZXY=            -22.9523
 N-N= 2.311754697677D+02 E-N=-1.266938975665D+03  KE= 3.404411585831D+02
  Exact polarizability:   0.000   0.000   0.000   0.000   0.000   0.000
 Approx polarizability:  57.779  -0.197  79.549   3.631  10.916  62.028

 This type of calculation cannot be archived.


 IT IS A QUALITY OF REVOLUTIONS NOT TO GO BY OLD LINES OR OLD LAWS,
 BUT TO BREAK UP BOTH, AND MAKE NEW ONES.
                                              -- A. LINCOLN (1848)
 Job cpu time:       0 days  5 hours 17 minutes 18.5 seconds.
 Elapsed time:       0 days  0 hours 20 minutes 26.8 seconds.
 File lengths (MBytes):  RWF=     28 Int=      0 D2E=      0 Chk=      4 Scr=      1
 Normal termination of Gaussian 16 at Wed Dec 23 22:37:24 2020.
