 Entering Gaussian System, Link 0=g16
 Initial command:
 /apps/cent7/gaussian/g16-B.01/g16-haswell/g16/l1.exe "/scratch/bell/zhao922/YARP/paper-example/KHP-network/pp_0/IRC-folder/Gau-60555.inp" -scrdir="/scratch/bell/zhao922/YARP/paper-example/KHP-network/pp_0/IRC-folder/"
 Entering Link 1 = /apps/cent7/gaussian/g16-B.01/g16-haswell/g16/l1.exe PID=     60556.
  
 Copyright (c) 1988-2017, Gaussian, Inc.  All Rights Reserved.
  
 This is part of the Gaussian(R) 16 program.  It is based on
 the Gaussian(R) 09 system (copyright 2009, Gaussian, Inc.),
 the Gaussian(R) 03 system (copyright 2003, Gaussian, Inc.),
 the Gaussian(R) 98 system (copyright 1998, Gaussian, Inc.),
 the Gaussian(R) 94 system (copyright 1995, Gaussian, Inc.),
 the Gaussian 92(TM) system (copyright 1992, Gaussian, Inc.),
 the Gaussian 90(TM) system (copyright 1990, Gaussian, Inc.),
 the Gaussian 88(TM) system (copyright 1988, Gaussian, Inc.),
 the Gaussian 86(TM) system (copyright 1986, Carnegie Mellon
 University), and the Gaussian 82(TM) system (copyright 1983,
 Carnegie Mellon University). Gaussian is a federally registered
 trademark of Gaussian, Inc.
  
 This software contains proprietary and confidential information,
 including trade secrets, belonging to Gaussian, Inc.
  
 This software is provided under written license and may be
 used, copied, transmitted, or stored only in accord with that
 written license.
  
 The following legend is applicable only to US Government
 contracts under FAR:
  
                    RESTRICTED RIGHTS LEGEND
  
 Use, reproduction and disclosure by the US Government is
 subject to restrictions as set forth in subparagraphs (a)
 and (c) of the Commercial Computer Software - Restricted
 Rights clause in FAR 52.227-19.
  
 Gaussian, Inc.
 340 Quinnipiac St., Bldg. 40, Wallingford CT 06492
  
  
 ---------------------------------------------------------------
 Warning -- This program may not be used in any manner that
 competes with the business of Gaussian, Inc. or will provide
 assistance to any competitor of Gaussian, Inc.  The licensee
 of this program is prohibited from giving any competitor of
 Gaussian, Inc. access to this program.  By using this program,
 the user acknowledges that Gaussian, Inc. is engaged in the
 business of creating and licensing software in the field of
 computational chemistry and represents and warrants to the
 licensee that it is not a competitor of Gaussian, Inc. and that
 it will not use this program in any manner prohibited above.
 ---------------------------------------------------------------
  

 Cite this work as:
 Gaussian 16, Revision B.01,
 M. J. Frisch, G. W. Trucks, H. B. Schlegel, G. E. Scuseria, 
 M. A. Robb, J. R. Cheeseman, G. Scalmani, V. Barone, 
 G. A. Petersson, H. Nakatsuji, X. Li, M. Caricato, A. V. Marenich, 
 J. Bloino, B. G. Janesko, R. Gomperts, B. Mennucci, H. P. Hratchian, 
 J. V. Ortiz, A. F. Izmaylov, J. L. Sonnenberg, D. Williams-Young, 
 F. Ding, F. Lipparini, F. Egidi, J. Goings, B. Peng, A. Petrone, 
 T. Henderson, D. Ranasinghe, V. G. Zakrzewski, J. Gao, N. Rega, 
 G. Zheng, W. Liang, M. Hada, M. Ehara, K. Toyota, R. Fukuda, 
 J. Hasegawa, M. Ishida, T. Nakajima, Y. Honda, O. Kitao, H. Nakai, 
 T. Vreven, K. Throssell, J. A. Montgomery, Jr., J. E. Peralta, 
 F. Ogliaro, M. J. Bearpark, J. J. Heyd, E. N. Brothers, K. N. Kudin, 
 V. N. Staroverov, T. A. Keith, R. Kobayashi, J. Normand, 
 K. Raghavachari, A. P. Rendell, J. C. Burant, S. S. Iyengar, 
 J. Tomasi, M. Cossi, J. M. Millam, M. Klene, C. Adamo, R. Cammi, 
 J. W. Ochterski, R. L. Martin, K. Morokuma, O. Farkas, 
 J. B. Foresman, and D. J. Fox, Gaussian, Inc., Wallingford CT, 2016.
 
 ******************************************
 Gaussian 16:  ES64L-G16RevB.01 20-Dec-2017
                23-Dec-2020 
 ******************************************
 %NProcShared=16
 Will use up to   16 processors via shared memory.
 %Mem=6GB
 ----------------------------------------------------------------------
 # B3LYP/6-31+G* IRC=(CALCALL, maxpoints=40, StepSize=15, maxcyc=100, R
 eport=Cartesians)
 ----------------------------------------------------------------------
 1/6=100,10=4,18=10,26=3,38=1,39=15,42=40,44=3,71=1,129=10,172=1/1,23;
 2/12=2,17=6,18=5,29=1,40=1/2;
 3/5=1,6=6,7=11,11=2,25=1,30=1,71=2,74=-5,140=1/1,2,3;
 4//1;
 5/5=2,38=5/2;
 8/6=4,10=90,11=11/1;
 11/6=1,8=1,9=11,15=111,16=1/1,2,10;
 10/6=1,13=1/2;
 6/7=2,8=2,9=2,10=2,18=1,28=1/1;
 7/10=1,25=1/1,2,3,16;
 1/6=100,10=4,18=10,26=3,39=15,42=40,44=3,71=1,129=10/23(2);
 2/29=1/2;
 99/5=20/99;
 2/29=1/2;
 3/5=1,6=6,7=11,11=2,25=1,30=1,71=2,74=-5,140=1/1,2,3;
 4/5=5,16=3,69=1/1;
 5/5=2,38=5/2;
 8/6=4,10=90,11=11/1;
 11/6=1,8=1,9=11,15=111,16=1/1,2,10;
 10/6=1,13=1/2;
 7/10=1,25=1/1,2,3,16;
 1/6=100,10=4,18=10,26=3,39=15,42=40,44=3,71=1,129=10/23(-8);
 2/29=1/2;
 6/7=2,8=2,9=2,10=2,18=1,19=2,28=1/1;
 99/5=20/99;
 -----------
 pp_25_0 IRC
 -----------
 Symbolic Z-matrix:
 Charge =  0 Multiplicity = 1
 C                     1.24762   0.71257  -0.36776 
 C                    -0.02466   1.19809   0.34276 
 C                    -1.0231    0.07368   0.18376 
 O                     1.4819   -0.61032   0.09687 
 O                     0.22105  -1.28502  -0.11132 
 O                    -2.04245  -0.04779  -0.40149 
 H                    -0.41953  -1.19268   1.08745 
 H                     1.12034   0.72131  -1.45794 
 H                     2.13125   1.29284  -0.08869 
 H                    -1.02827  -0.66052   1.55508 
 H                    -0.46008   2.08894  -0.12025 
 H                     0.17317   1.38907   1.39938 
 
 IRC-IRC-IRC-IRC-IRC-IRC-IRC-IRC-IRC-IRC-IRC-IRC-IRC-IRC-IRC-IRC-IRC-IRC
 ------------------------------------------------------------------------
 INPUT DATA FOR L123
 ------------------------------------------------------------------------
 GENERAL PARAMETERS:
 Follow reaction path in both directions.
 Maximum points per path      =  40
 Step size                    =   0.150 bohr
 Integration scheme           = HPC                                 
    Redo corrector integration= Yes                                 
    DWI Weight Power          =  2
    DWI will use Hessian update vectors when possible.
    Max correction cycles     = 100
 Initial Hessian              = CalcFC
 Hessian evaluation           = Analytic at all predictor steps
                              = Update at all corrector steps
 Hessian updating method      = Bofill                              
 ------------------------------------------------------------------------
 IRC-IRC-IRC-IRC-IRC-IRC-IRC-IRC-IRC-IRC-IRC-IRC-IRC-IRC-IRC-IRC-IRC-IRC
                          Input orientation:                          
 ---------------------------------------------------------------------
 Center     Atomic      Atomic             Coordinates (Angstroms)
 Number     Number       Type             X           Y           Z
 ---------------------------------------------------------------------
      1          6           0        1.247624    0.712566   -0.367759
      2          6           0       -0.024664    1.198094    0.342758
      3          6           0       -1.023100    0.073680    0.183761
      4          8           0        1.481897   -0.610318    0.096866
      5          8           0        0.221046   -1.285018   -0.111322
      6          8           0       -2.042449   -0.047787   -0.401492
      7          1           0       -0.419525   -1.192684    1.087448
      8          1           0        1.120341    0.721312   -1.457943
      9          1           0        2.131250    1.292841   -0.088691
     10          1           0       -1.028266   -0.660524    1.555078
     11          1           0       -0.460081    2.088937   -0.120246
     12          1           0        0.173165    1.389067    1.399376
 ---------------------------------------------------------------------
                    Distance matrix (angstroms):
                    1          2          3          4          5
     1  C    0.000000
     2  C    1.535998   0.000000
     3  C    2.422506   1.512105   0.000000
     4  O    1.421542   2.366547   2.598156   0.000000
     5  O    2.260523   2.536219   1.865753   1.445098   0.000000
     6  O    3.376959   2.485475   1.181672   3.603584   2.595833
     7  H    2.920101   2.535014   1.668721   2.221668   1.362317
     8  H    1.097624   2.186523   2.776501   2.078796   2.578271
     9  H    1.093340   2.200702   3.392714   2.019432   3.208543
    10  H    3.280603   2.435446   1.555504   2.903415   2.174319
    11  H    2.207242   1.094332   2.114396   3.332326   3.442032
    12  H    2.175978   1.091810   2.153837   2.721553   3.071682
                    6          7          8          9         10
     6  O    0.000000
     7  H    2.482260   0.000000
     8  H    3.422111   3.537454   0.000000
     9  H    4.394871   3.750679   1.795392   0.000000
    10  H    2.287396   0.934044   3.950225   4.062038   0.000000
    11  H    2.673682   3.497028   2.481444   2.711044   3.269416
    12  H    3.196345   2.667212   3.083393   2.461239   2.380862
                   11         12
    11  H    0.000000
    12  H    1.788874   0.000000
 Symmetry turned off by external request.
 Stoichiometry    C3H6O3
 Framework group  C1[X(C3H6O3)]
 Deg. of freedom    30
 Full point group                 C1      NOp   1
 Rotational constants (GHZ):           6.3305366           3.2520732           2.4366019
 Standard basis: 6-31+G(d) (6D, 7F)
   126 basis functions,   216 primitive gaussians,   126 cartesian basis functions
    24 alpha electrons       24 beta electrons
       nuclear repulsion energy       255.0870518122 Hartrees.
 NAtoms=   12 NActive=   12 NUniq=   12 SFac= 1.00D+00 NAtFMM=   60 NAOKFM=F Big=F
 Integral buffers will be    131072 words long.
 Raffenetti 2 integral format.
 Two-electron integral symmetry is turned off.
 One-electron integrals computed using PRISM.
 NBasis=   126 RedAO= T EigKep=  1.16D-04  NBF=   126
 NBsUse=   126 1.00D-06 EigRej= -1.00D+00 NBFU=   126
 ExpMin= 4.38D-02 ExpMax= 5.48D+03 ExpMxC= 8.25D+02 IAcc=3 IRadAn=         5 AccDes= 0.00D+00
 Harris functional with IExCor=  402 and IRadAn=       5 diagonalized for initial guess.
 HarFok:  IExCor=  402 AccDes= 0.00D+00 IRadAn=         5 IDoV= 1 UseB2=F ITyADJ=14
 ICtDFT=  3500011 ScaDFX=  1.000000  1.000000  1.000000  1.000000
 FoFCou: FMM=F IPFlag=           0 FMFlag=      100000 FMFlg1=           0
         NFxFlg=           0 DoJE=T BraDBF=F KetDBF=T FulRan=T
         wScrn=  0.000000 ICntrl=       500 IOpCl=  0 I1Cent=   200000004 NGrid=           0
         NMat0=    1 NMatS0=      1 NMatT0=    0 NMatD0=    1 NMtDS0=    0 NMtDT0=    0
 Symmetry not used in FoFCou.
 Keep R1 ints in memory in canonical form, NReq=47237243.
 Requested convergence on RMS density matrix=1.00D-08 within 128 cycles.
 Requested convergence on MAX density matrix=1.00D-06.
 Requested convergence on             energy=1.00D-06.
 No special actions if energy rises.
 SCF Done:  E(RB3LYP) =  -343.394741186     A.U. after   13 cycles
            NFock= 13  Conv=0.81D-08     -V/T= 2.0090
 DoSCS=F DFT=T ScalE2(SS,OS)=  1.000000  1.000000
 Range of M.O.s used for correlation:     1   126
 NBasis=   126 NAE=    24 NBE=    24 NFC=     0 NFV=     0
 NROrb=    126 NOA=    24 NOB=    24 NVA=   102 NVB=   102

 **** Warning!!: The largest alpha MO coefficient is  0.32508279D+02

 Symmetrizing basis deriv contribution to polar:
 IMax=3 JMax=2 DiffMx= 0.00D+00
 G2DrvN: will do    13 centers at a time, making    1 passes.
 Calling FoFCou, ICntrl=  3107 FMM=F I1Cent=   0 AccDes= 0.00D+00.
 End of G2Drv F.D. properties file   721 does not exist.
 End of G2Drv F.D. properties file   722 does not exist.
 End of G2Drv F.D. properties file   788 does not exist.
          IDoAtm=111111111111
          Differentiating once with respect to nuclear coordinates.
 Keep R1 ints in memory in canonical form, NReq=47193258.
          There are    39 degrees of freedom in the 1st order CPHF.  IDoFFX=6 NUNeed=     0.
     33 vectors produced by pass  0 Test12= 6.28D-15 2.56D-09 XBig12= 1.86D-01 2.03D-01.
 AX will form    33 AO Fock derivatives at one time.
     33 vectors produced by pass  1 Test12= 6.28D-15 2.56D-09 XBig12= 2.18D-02 2.65D-02.
     33 vectors produced by pass  2 Test12= 6.28D-15 2.56D-09 XBig12= 5.53D-04 3.13D-03.
     33 vectors produced by pass  3 Test12= 6.28D-15 2.56D-09 XBig12= 2.51D-06 1.84D-04.
     33 vectors produced by pass  4 Test12= 6.28D-15 2.56D-09 XBig12= 4.87D-09 1.07D-05.
     26 vectors produced by pass  5 Test12= 6.28D-15 2.56D-09 XBig12= 5.76D-12 3.69D-07.
      5 vectors produced by pass  6 Test12= 6.28D-15 2.56D-09 XBig12= 5.08D-15 7.94D-09.
 InvSVY:  IOpt=1 It=  1 EMax= 1.78D-15
 Solved reduced A of dimension   196 with    33 vectors.
 End of Minotr F.D. properties file   721 does not exist.
 End of Minotr F.D. properties file   722 does not exist.
 End of Minotr F.D. properties file   788 does not exist.

 **********************************************************************

            Population analysis using the SCF Density.

 **********************************************************************

 Alpha  occ. eigenvalues --  -19.23049 -19.21652 -19.20398 -10.36710 -10.27488
 Alpha  occ. eigenvalues --  -10.24961  -1.13766  -1.10996  -0.90522  -0.82400
 Alpha  occ. eigenvalues --   -0.66832  -0.62174  -0.55906  -0.51826  -0.49144
 Alpha  occ. eigenvalues --   -0.48119  -0.46529  -0.46189  -0.42360  -0.38957
 Alpha  occ. eigenvalues --   -0.38573  -0.33143  -0.30303  -0.26046
 Alpha virt. eigenvalues --   -0.05505  -0.01759   0.00169   0.00634   0.01898
 Alpha virt. eigenvalues --    0.03185   0.04635   0.05729   0.06447   0.07085
 Alpha virt. eigenvalues --    0.07902   0.09076   0.11434   0.12224   0.13448
 Alpha virt. eigenvalues --    0.15463   0.15978   0.19117   0.20042   0.21342
 Alpha virt. eigenvalues --    0.21684   0.22779   0.23690   0.24638   0.26526
 Alpha virt. eigenvalues --    0.27390   0.28062   0.28954   0.30796   0.31834
 Alpha virt. eigenvalues --    0.32104   0.33255   0.35006   0.35694   0.40710
 Alpha virt. eigenvalues --    0.45680   0.59209   0.62432   0.64146   0.67533
 Alpha virt. eigenvalues --    0.68934   0.72614   0.75638   0.80511   0.87167
 Alpha virt. eigenvalues --    0.91519   0.94893   0.95878   0.97884   1.04236
 Alpha virt. eigenvalues --    1.05681   1.10437   1.15001   1.17034   1.21023
 Alpha virt. eigenvalues --    1.24540   1.25642   1.26890   1.28593   1.29967
 Alpha virt. eigenvalues --    1.32702   1.38807   1.39412   1.41799   1.46971
 Alpha virt. eigenvalues --    1.53573   1.56576   1.59545   1.63388   1.67586
 Alpha virt. eigenvalues --    1.70972   1.74369   1.77365   1.84267   1.85812
 Alpha virt. eigenvalues --    1.87379   1.93816   1.98362   2.04664   2.06218
 Alpha virt. eigenvalues --    2.08187   2.11047   2.17010   2.25520   2.34828
 Alpha virt. eigenvalues --    2.40523   2.43908   2.47694   2.52070   2.57878
 Alpha virt. eigenvalues --    2.64405   2.73526   2.82215   2.92037   3.13612
 Alpha virt. eigenvalues --    3.21001   4.03840   4.15650   4.24520   4.35462
 Alpha virt. eigenvalues --    4.45170   4.59924
          Condensed to atoms (all electrons):
               1          2          3          4          5          6
     1  C    5.378285   0.007514   0.056522   0.142482  -0.063710  -0.039059
     2  C    0.007514   6.255188  -0.298737  -0.080000  -0.027057  -0.010083
     3  C    0.056522  -0.298737   5.419195   0.016830  -0.004434   0.406732
     4  O    0.142482  -0.080000   0.016830   8.078750   0.106027   0.000257
     5  O   -0.063710  -0.027057  -0.004434   0.106027   8.406556  -0.010711
     6  O   -0.039059  -0.010083   0.406732   0.000257  -0.010711   8.031210
     7  H    0.002185   0.006142   0.037135   0.018453  -0.095159  -0.008695
     8  H    0.389080  -0.052022  -0.007947  -0.047361   0.013386   0.000373
     9  H    0.403096  -0.053686   0.011192  -0.040894   0.005779   0.000001
    10  H    0.034780  -0.114201   0.258259   0.024270  -0.211538  -0.048825
    11  H   -0.027659   0.378610  -0.043720   0.007391   0.000394  -0.005999
    12  H   -0.056480   0.403006  -0.033830  -0.001438   0.004299   0.003671
               7          8          9         10         11         12
     1  C    0.002185   0.389080   0.403096   0.034780  -0.027659  -0.056480
     2  C    0.006142  -0.052022  -0.053686  -0.114201   0.378610   0.403006
     3  C    0.037135  -0.007947   0.011192   0.258259  -0.043720  -0.033830
     4  O    0.018453  -0.047361  -0.040894   0.024270   0.007391  -0.001438
     5  O   -0.095159   0.013386   0.005779  -0.211538   0.000394   0.004299
     6  O   -0.008695   0.000373   0.000001  -0.048825  -0.005999   0.003671
     7  H    0.613413  -0.000443  -0.000465   0.252807   0.000326   0.000650
     8  H   -0.000443   0.522910  -0.034387   0.000099  -0.001105   0.003335
     9  H   -0.000465  -0.034387   0.498793  -0.000080   0.001147  -0.005331
    10  H    0.252807   0.000099  -0.000080   0.774380   0.001424  -0.000417
    11  H    0.000326  -0.001105   0.001147   0.001424   0.465937  -0.024752
    12  H    0.000650   0.003335  -0.005331  -0.000417  -0.024752   0.460518
 Mulliken charges:
               1
     1  C   -0.227037
     2  C   -0.414676
     3  C    0.182803
     4  O   -0.224769
     5  O   -0.123833
     6  O   -0.318874
     7  H    0.173651
     8  H    0.214081
     9  H    0.214835
    10  H    0.029043
    11  H    0.248005
    12  H    0.246769
 Sum of Mulliken charges =  -0.00000
 Mulliken charges with hydrogens summed into heavy atoms:
               1
     1  C    0.201880
     2  C    0.080099
     3  C    0.211845
     4  O   -0.224769
     5  O    0.049819
     6  O   -0.318874
 APT charges:
               1
     1  C   -0.827678
     2  C   -0.819323
     3  C   -0.275028
     4  O   -0.250348
     5  O   -0.062002
     6  O    0.027834
     7  H    0.112887
     8  H    0.409670
     9  H    0.581568
    10  H    0.100221
    11  H    0.518701
    12  H    0.483497
 Sum of APT charges =  -0.00000
 APT charges with hydrogens summed into heavy atoms:
               1
     1  C    0.163560
     2  C    0.182875
     3  C   -0.174806
     4  O   -0.250348
     5  O    0.050885
     6  O    0.027834
 Electronic spatial extent (au):  <R**2>=            525.1785
 Charge=             -0.0000 electrons
 Dipole moment (field-independent basis, Debye):
    X=              1.1818    Y=              3.7293    Z=              1.0460  Tot=              4.0495
 Quadrupole moment (field-independent basis, Debye-Ang):
   XX=            -41.8910   YY=            -35.9035   ZZ=            -36.0601
   XY=              2.9788   XZ=             -2.2810   YZ=             -0.9355
 Traceless Quadrupole moment (field-independent basis, Debye-Ang):
   XX=             -3.9394   YY=              2.0480   ZZ=              1.8914
   XY=              2.9788   XZ=             -2.2810   YZ=             -0.9355
 Octapole moment (field-independent basis, Debye-Ang**2):
  XXX=             13.9482  YYY=              2.7583  ZZZ=             -3.8554  XYY=             -1.1257
  XXY=              4.4342  XXZ=              0.8569  XZZ=              1.8849  YZZ=              0.1638
  YYZ=              1.0467  XYZ=              0.2827
 Hexadecapole moment (field-independent basis, Debye-Ang**3):
 XXXX=           -384.9423 YYYY=           -205.2871 ZZZZ=            -91.2313 XXXY=              7.2417
 XXXZ=             -2.6250 YYYX=             -2.3450 YYYZ=             -2.0336 ZZZX=              4.6063
 ZZZY=              3.0053 XXYY=            -92.3527 XXZZ=            -77.5370 YYZZ=            -48.7819
 XXYZ=              0.8891 YYXZ=              2.2320 ZZXY=             -0.7527
 N-N= 2.550870518122D+02 E-N=-1.313932352303D+03  KE= 3.403286197114D+02
  Exact polarizability:   0.000   0.000   0.000   0.000   0.000   0.000
 Approx polarizability:  97.305  -9.845  79.139   5.531  -4.985  75.853
 Calling FoFJK, ICntrl=    100127 FMM=F ISym2X=0 I1Cent= 0 IOpClX= 0 NMat=1 NMatS=1 NMatT=0.
 -------------------------------------------------------------------
 Center     Atomic                   Forces (Hartrees/Bohr)
 Number     Number              X              Y              Z
 -------------------------------------------------------------------
      1        6           0.000000108    0.000000220   -0.000000258
      2        6           0.000000485   -0.000000255    0.000000667
      3        6          -0.000000030    0.000000219   -0.000000771
      4        8          -0.000000722   -0.000000479   -0.000000460
      5        8           0.000000518   -0.000000089   -0.000000197
      6        8           0.000000352    0.000000082    0.000001813
      7        1          -0.000000349    0.000001397    0.000000868
      8        1          -0.000000534   -0.000000431   -0.000000394
      9        1          -0.000000297   -0.000000438   -0.000000986
     10        1           0.000000058   -0.000000793    0.000000716
     11        1          -0.000000104    0.000000411   -0.000000278
     12        1           0.000000515    0.000000155   -0.000000720
 -------------------------------------------------------------------
 Cartesian Forces:  Max     0.000001813 RMS     0.000000604
 IRC-IRC-IRC-IRC-IRC-IRC-IRC-IRC-IRC-IRC-IRC-IRC-IRC-IRC-IRC-IRC-IRC-IRC
          ******** Start new reaction path calculation ********
 Supplied step size of   0.1500 bohr.
    Integration on MW PES will use step size of   0.1625 sqrt(amu)*bohr.
 Point Number:   0          Path Number:   1
 Calculating another point on the path.
 IRC-IRC-IRC-IRC-IRC-IRC-IRC-IRC-IRC-IRC-IRC-IRC-IRC-IRC-IRC-IRC-IRC-IRC
                          Input orientation:                          
 ---------------------------------------------------------------------
 Center     Atomic      Atomic             Coordinates (Angstroms)
 Number     Number       Type             X           Y           Z
 ---------------------------------------------------------------------
      1          6           0        1.263970    0.753025   -0.341672
      2          6           0       -0.007597    1.238137    0.367857
      3          6           0       -1.010383    0.114631    0.217569
      4          8           0        1.499074   -0.570707    0.123088
      5          8           0        0.238381   -1.246832   -0.082760
      6          8           0       -2.026107   -0.007407   -0.377055
      7          1           0       -0.365951   -1.164533    1.058319
      8          1           0        1.137585    0.761044   -1.431824
      9          1           0        2.148838    1.331388   -0.062742
     10          1           0       -1.015764   -0.596459    1.548830
     11          1           0       -0.442118    2.129346   -0.095544
     12          1           0        0.189576    1.429120    1.424716
 ---------------------------------------------------------------------
                    Distance matrix (angstroms):
                    1          2          3          4          5
     1  C    0.000000
     2  C    1.534812   0.000000
     3  C    2.427546   1.513417   0.000000
     4  O    1.422512   2.366830   2.603073   0.000000
     5  O    2.262365   2.537445   1.871681   1.445290   0.000000
     6  O    3.376998   2.486092   1.183286   3.604768   2.598209
     7  H    2.879869   2.525466   1.660847   2.169240   1.293851
     8  H    1.097484   2.185843   2.784262   2.078939   2.580718
     9  H    1.093296   2.200983   3.397021   2.018587   3.208966
    10  H    3.254580   2.403505   1.509282   2.890988   2.158228
    11  H    2.205805   1.094442   2.116612   3.332614   3.444099
    12  H    2.175214   1.091927   2.150579   2.721825   3.071740
                    6          7          8          9         10
     6  O    0.000000
     7  H    2.481000   0.000000
     8  H    3.422280   3.488449   0.000000
     9  H    4.395604   3.716256   1.795080   0.000000
    10  H    2.253178   0.992757   3.919697   4.040850   0.000000
    11  H    2.674693   3.490966   2.480596   2.711248   3.234664
    12  H    3.196755   2.677666   3.082997   2.461867   2.360343
                   11         12
    11  H    0.000000
    12  H    1.789006   0.000000
 Symmetry turned off by external request.
 Stoichiometry    C3H6O3
 Framework group  C1[X(C3H6O3)]
 Deg. of freedom    30
 Full point group                 C1      NOp   1
 Rotational constants (GHZ):           6.3390844           3.2531537           2.4340909
 Standard basis: 6-31+G(d) (6D, 7F)
   126 basis functions,   216 primitive gaussians,   126 cartesian basis functions
    24 alpha electrons       24 beta electrons
       nuclear repulsion energy       255.2767316876 Hartrees.
 NAtoms=   12 NActive=   12 NUniq=   12 SFac= 1.00D+00 NAtFMM=   60 NAOKFM=F Big=F
 Integral buffers will be    131072 words long.
 Raffenetti 2 integral format.
 Two-electron integral symmetry is turned off.
 One-electron integrals computed using PRISM.
 NBasis=   126 RedAO= T EigKep=  1.17D-04  NBF=   126
 NBsUse=   126 1.00D-06 EigRej= -1.00D+00 NBFU=   126
 Initial guess from the checkpoint file:  "/scratch/bell/zhao922/YARP/paper-example/KHP-network/pp_0/IRC-folder/Gau-60556.chk"
 B after Tr=     0.032239    0.075789    0.047655
         Rot=    1.000000   -0.000292    0.000071   -0.000031 Ang=  -0.03 deg.
 ExpMin= 4.38D-02 ExpMax= 5.48D+03 ExpMxC= 8.25D+02 IAcc=3 IRadAn=         5 AccDes= 0.00D+00
 Harris functional with IExCor=  402 and IRadAn=       5 diagonalized for initial guess.
 HarFok:  IExCor=  402 AccDes= 0.00D+00 IRadAn=         5 IDoV= 1 UseB2=F ITyADJ=14
 ICtDFT=  3500011 ScaDFX=  1.000000  1.000000  1.000000  1.000000
 FoFCou: FMM=F IPFlag=           0 FMFlag=      100000 FMFlg1=           0
         NFxFlg=           0 DoJE=T BraDBF=F KetDBF=T FulRan=T
         wScrn=  0.000000 ICntrl=       500 IOpCl=  0 I1Cent=   200000004 NGrid=           0
         NMat0=    1 NMatS0=      1 NMatT0=    0 NMatD0=    1 NMtDS0=    0 NMtDT0=    0
 Symmetry not used in FoFCou.
 Keep R1 ints in memory in canonical form, NReq=47237243.
 Requested convergence on RMS density matrix=1.00D-08 within 128 cycles.
 Requested convergence on MAX density matrix=1.00D-06.
 Requested convergence on             energy=1.00D-06.
 No special actions if energy rises.
 SCF Done:  E(RB3LYP) =  -343.396169526     A.U. after   12 cycles
            NFock= 12  Conv=0.86D-08     -V/T= 2.0090
 DoSCS=F DFT=T ScalE2(SS,OS)=  1.000000  1.000000
 Range of M.O.s used for correlation:     1   126
 NBasis=   126 NAE=    24 NBE=    24 NFC=     0 NFV=     0
 NROrb=    126 NOA=    24 NOB=    24 NVA=   102 NVB=   102

 **** Warning!!: The largest alpha MO coefficient is  0.32549732D+02

 Symmetrizing basis deriv contribution to polar:
 IMax=3 JMax=2 DiffMx= 0.00D+00
 G2DrvN: will do    13 centers at a time, making    1 passes.
 Calling FoFCou, ICntrl=  3107 FMM=F I1Cent=   0 AccDes= 0.00D+00.
 End of G2Drv F.D. properties file   721 does not exist.
 End of G2Drv F.D. properties file   722 does not exist.
 End of G2Drv F.D. properties file   788 does not exist.
          IDoAtm=111111111111
          Differentiating once with respect to nuclear coordinates.
 Keep R1 ints in memory in canonical form, NReq=47193258.
          There are    39 degrees of freedom in the 1st order CPHF.  IDoFFX=6 NUNeed=     0.
     33 vectors produced by pass  0 Test12= 6.28D-15 2.56D-09 XBig12= 1.88D-01 2.11D-01.
 AX will form    33 AO Fock derivatives at one time.
     33 vectors produced by pass  1 Test12= 6.28D-15 2.56D-09 XBig12= 2.16D-02 2.83D-02.
     33 vectors produced by pass  2 Test12= 6.28D-15 2.56D-09 XBig12= 5.45D-04 2.67D-03.
     33 vectors produced by pass  3 Test12= 6.28D-15 2.56D-09 XBig12= 2.66D-06 1.87D-04.
     33 vectors produced by pass  4 Test12= 6.28D-15 2.56D-09 XBig12= 5.36D-09 8.84D-06.
     26 vectors produced by pass  5 Test12= 6.28D-15 2.56D-09 XBig12= 6.32D-12 3.74D-07.
      3 vectors produced by pass  6 Test12= 6.28D-15 2.56D-09 XBig12= 5.57D-15 9.25D-09.
 InvSVY:  IOpt=1 It=  1 EMax= 1.78D-15
 Solved reduced A of dimension   194 with    33 vectors.
 End of Minotr F.D. properties file   721 does not exist.
 End of Minotr F.D. properties file   722 does not exist.
 End of Minotr F.D. properties file   788 does not exist.
 Calling FoFJK, ICntrl=    100127 FMM=F ISym2X=0 I1Cent= 0 IOpClX= 0 NMat=1 NMatS=1 NMatT=0.
 -------------------------------------------------------------------
 Center     Atomic                   Forces (Hartrees/Bohr)
 Number     Number              X              Y              Z
 -------------------------------------------------------------------
      1        6          -0.000879616    0.001192095   -0.000125923
      2        6           0.000787410    0.000251012   -0.002622451
      3        6          -0.008915561    0.002122052    0.018015697
      4        8           0.001502550   -0.001197660    0.000364210
      5        8           0.001707612   -0.005592781    0.007446353
      6        8          -0.001402127    0.001274188   -0.005421830
      7        1           0.008546350   -0.003527521   -0.011413603
      8        1           0.000108154   -0.000068444   -0.000005288
      9        1           0.000191886   -0.000297440   -0.000032540
     10        1          -0.001882017    0.005720657   -0.005806241
     11        1           0.000295132    0.000119988   -0.000278171
     12        1          -0.000059772    0.000003855   -0.000120212
 -------------------------------------------------------------------
 Cartesian Forces:  Max     0.018015697 RMS     0.004804090
 IRC-IRC-IRC-IRC-IRC-IRC-IRC-IRC-IRC-IRC-IRC-IRC-IRC-IRC-IRC-IRC-IRC-IRC
 Pt  1 Step number   1 out of a maximum of 100
 Modified Bulirsch-Stoer Extrapolation Cycles:
    EPS =    0.000010000000000
      PEZero:  N= 2 I= 1 D=  4.23D-04 Err=  8.00D-04
      PEZero:  N= 3 I= 2 D=  4.23D-04 Err=  5.33D-04
      PEZero:  N= 3 I= 1 D=  8.46D-04 Err=  8.80D-08
 Maximum DWI energy   std dev =  0.000012561 at pt    46
 Maximum DWI gradient std dev =  0.030782098 at pt    34
 CORRECTOR INTEGRATION CONVERGENCE:
   Recorrection delta-x convergence threshold:    0.010000
   Delta-x Convergence Met
 Point Number:   1          Path Number:   1
   CHANGE IN THE REACTION COORDINATE =    0.16239
   NET REACTION COORDINATE UP TO THIS POINT =    0.16239
  # OF POINTS ALONG THE PATH =   1
  # OF STEPS =   1

 Calculating another point on the path.
 IRC-IRC-IRC-IRC-IRC-IRC-IRC-IRC-IRC-IRC-IRC-IRC-IRC-IRC-IRC-IRC-IRC-IRC
                          Input orientation:                          
 ---------------------------------------------------------------------
 Center     Atomic      Atomic             Coordinates (Angstroms)
 Number     Number       Type             X           Y           Z
 ---------------------------------------------------------------------
      1          6           0        1.263612    0.753535   -0.341712
      2          6           0       -0.007276    1.238263    0.366804
      3          6           0       -1.013814    0.115381    0.224633
      4          8           0        1.499509   -0.571062    0.123211
      5          8           0        0.238768   -1.248433   -0.080496
      6          8           0       -2.026523   -0.007026   -0.378651
      7          1           0       -0.325149   -1.181609    1.004444
      8          1           0        1.138135    0.760690   -1.431836
      9          1           0        2.149770    1.329926   -0.062891
     10          1           0       -1.024297   -0.569628    1.521175
     11          1           0       -0.440664    2.130005   -0.096845
     12          1           0        0.189201    1.429019    1.424072
 ---------------------------------------------------------------------
                    Distance matrix (angstroms):
                    1          2          3          4          5
     1  C    0.000000
     2  C    1.533660   0.000000
     3  C    2.432007   1.514660   0.000000
     4  O    1.423503   2.367149   2.607352   0.000000
     5  O    2.264159   2.538556   1.876713   1.445613   0.000000
     6  O    3.377100   2.486725   1.185122   3.605954   2.600294
     7  H    2.842724   2.522579   1.662692   2.116297   1.224566
     8  H    1.097345   2.185211   2.791272   2.079020   2.582935
     9  H    1.093272   2.201337   3.400890   2.017729   3.209389
    10  H    3.233518   2.373894   1.466413   2.885118   2.149758
    11  H    2.204357   1.094532   2.119094   3.332936   3.446120
    12  H    2.174541   1.092158   2.147450   2.722035   3.071633
                    6          7          8          9         10
     6  O    0.000000
     7  H    2.487422   0.000000
     8  H    3.422520   3.442264   0.000000
     9  H    4.396426   3.684051   1.794838   0.000000
    10  H    2.220431   1.063175   3.894371   4.023962   0.000000
    11  H    2.676054   3.491843   2.479886   2.711388   3.201036
    12  H    3.197103   2.693700   3.082750   2.462663   2.340212
                   11         12
    11  H    0.000000
    12  H    1.789218   0.000000
 Symmetry turned off by external request.
 Stoichiometry    C3H6O3
 Framework group  C1[X(C3H6O3)]
 Deg. of freedom    30
 Full point group                 C1      NOp   1
 Rotational constants (GHZ):           6.3453337           3.2538315           2.4315803
 Standard basis: 6-31+G(d) (6D, 7F)
   126 basis functions,   216 primitive gaussians,   126 cartesian basis functions
    24 alpha electrons       24 beta electrons
       nuclear repulsion energy       255.4595019843 Hartrees.
 NAtoms=   12 NActive=   12 NUniq=   12 SFac= 1.00D+00 NAtFMM=   60 NAOKFM=F Big=F
 Integral buffers will be    131072 words long.
 Raffenetti 2 integral format.
 Two-electron integral symmetry is turned off.
 One-electron integrals computed using PRISM.
 NBasis=   126 RedAO= T EigKep=  1.17D-04  NBF=   126
 NBsUse=   126 1.00D-06 EigRej= -1.00D+00 NBFU=   126
 Initial guess from the checkpoint file:  "/scratch/bell/zhao922/YARP/paper-example/KHP-network/pp_0/IRC-folder/Gau-60556.chk"
 B after Tr=     0.000691    0.000190   -0.001680
         Rot=    1.000000   -0.000279    0.000064   -0.000032 Ang=  -0.03 deg.
 ExpMin= 4.38D-02 ExpMax= 5.48D+03 ExpMxC= 8.25D+02 IAcc=3 IRadAn=         5 AccDes= 0.00D+00
 Harris functional with IExCor=  402 and IRadAn=       5 diagonalized for initial guess.
 HarFok:  IExCor=  402 AccDes= 0.00D+00 IRadAn=         5 IDoV= 1 UseB2=F ITyADJ=14
 ICtDFT=  3500011 ScaDFX=  1.000000  1.000000  1.000000  1.000000
 FoFCou: FMM=F IPFlag=           0 FMFlag=      100000 FMFlg1=           0
         NFxFlg=           0 DoJE=T BraDBF=F KetDBF=T FulRan=T
         wScrn=  0.000000 ICntrl=       500 IOpCl=  0 I1Cent=   200000004 NGrid=           0
         NMat0=    1 NMatS0=      1 NMatT0=    0 NMatD0=    1 NMtDS0=    0 NMtDT0=    0
 Symmetry not used in FoFCou.
 Keep R1 ints in memory in canonical form, NReq=47237243.
 Requested convergence on RMS density matrix=1.00D-08 within 128 cycles.
 Requested convergence on MAX density matrix=1.00D-06.
 Requested convergence on             energy=1.00D-06.
 No special actions if energy rises.
 SCF Done:  E(RB3LYP) =  -343.400655844     A.U. after   12 cycles
            NFock= 12  Conv=0.79D-08     -V/T= 2.0089
 DoSCS=F DFT=T ScalE2(SS,OS)=  1.000000  1.000000
 Range of M.O.s used for correlation:     1   126
 NBasis=   126 NAE=    24 NBE=    24 NFC=     0 NFV=     0
 NROrb=    126 NOA=    24 NOB=    24 NVA=   102 NVB=   102

 **** Warning!!: The largest alpha MO coefficient is  0.32302682D+02

 Symmetrizing basis deriv contribution to polar:
 IMax=3 JMax=2 DiffMx= 0.00D+00
 G2DrvN: will do    13 centers at a time, making    1 passes.
 Calling FoFCou, ICntrl=  3107 FMM=F I1Cent=   0 AccDes= 0.00D+00.
 End of G2Drv F.D. properties file   721 does not exist.
 End of G2Drv F.D. properties file   722 does not exist.
 End of G2Drv F.D. properties file   788 does not exist.
          IDoAtm=111111111111
          Differentiating once with respect to nuclear coordinates.
 Keep R1 ints in memory in canonical form, NReq=47193258.
          There are    39 degrees of freedom in the 1st order CPHF.  IDoFFX=6 NUNeed=     0.
     33 vectors produced by pass  0 Test12= 6.28D-15 2.56D-09 XBig12= 1.87D-01 2.18D-01.
 AX will form    33 AO Fock derivatives at one time.
     33 vectors produced by pass  1 Test12= 6.28D-15 2.56D-09 XBig12= 2.13D-02 2.73D-02.
     33 vectors produced by pass  2 Test12= 6.28D-15 2.56D-09 XBig12= 5.34D-04 3.12D-03.
     33 vectors produced by pass  3 Test12= 6.28D-15 2.56D-09 XBig12= 2.87D-06 1.90D-04.
     33 vectors produced by pass  4 Test12= 6.28D-15 2.56D-09 XBig12= 5.81D-09 8.71D-06.
     28 vectors produced by pass  5 Test12= 6.28D-15 2.56D-09 XBig12= 7.05D-12 3.38D-07.
      3 vectors produced by pass  6 Test12= 6.28D-15 2.56D-09 XBig12= 6.27D-15 1.04D-08.
 InvSVY:  IOpt=1 It=  1 EMax= 2.00D-15
 Solved reduced A of dimension   196 with    33 vectors.
 End of Minotr F.D. properties file   721 does not exist.
 End of Minotr F.D. properties file   722 does not exist.
 End of Minotr F.D. properties file   788 does not exist.
 Calling FoFJK, ICntrl=    100127 FMM=F ISym2X=0 I1Cent= 0 IOpClX= 0 NMat=1 NMatS=1 NMatT=0.
 -------------------------------------------------------------------
 Center     Atomic                   Forces (Hartrees/Bohr)
 Number     Number              X              Y              Z
 -------------------------------------------------------------------
      1        6          -0.001895924    0.002687296   -0.000205325
      2        6           0.001611547    0.000778493   -0.005559309
      3        6          -0.017648830    0.003877938    0.036804096
      4        8           0.003057316   -0.002439436    0.000946547
      5        8           0.002927804   -0.011164912    0.014756634
      6        8          -0.003062979    0.002691234   -0.011166190
      7        1           0.017700630   -0.007738765   -0.022604186
      8        1           0.000239758   -0.000163125   -0.000006564
      9        1           0.000418042   -0.000644530   -0.000055842
     10        1          -0.003857854    0.011835270   -0.012080838
     11        1           0.000659869    0.000306077   -0.000564146
     12        1          -0.000149380   -0.000025540   -0.000264878
 -------------------------------------------------------------------
 Cartesian Forces:  Max     0.036804096 RMS     0.009748486
 IRC-IRC-IRC-IRC-IRC-IRC-IRC-IRC-IRC-IRC-IRC-IRC-IRC-IRC-IRC-IRC-IRC-IRC
 Pt  2 Step number   1 out of a maximum of 100
 Modified Bulirsch-Stoer Extrapolation Cycles:
    EPS =    0.000010000000000
      PEZero:  N= 2 I= 1 D=  8.46D-04 Err=  2.93D-05
      PEZero:  N= 3 I= 2 D=  8.46D-04 Err=  1.95D-05
      PEZero:  N= 3 I= 1 D=  1.69D-03 Err=  4.63D-08
 Maximum DWI energy   std dev =  0.000012079 at pt    17
 Maximum DWI gradient std dev =  0.008275824 at pt    65
 CORRECTOR INTEGRATION CONVERGENCE:
   Recorrection delta-x convergence threshold:    0.010000
   Delta-x Convergence Met
 Point Number:   2          Path Number:   1
   CHANGE IN THE REACTION COORDINATE =    0.16240
   NET REACTION COORDINATE UP TO THIS POINT =    0.32479
  # OF POINTS ALONG THE PATH =   2
  # OF STEPS =   1

 Calculating another point on the path.
 IRC-IRC-IRC-IRC-IRC-IRC-IRC-IRC-IRC-IRC-IRC-IRC-IRC-IRC-IRC-IRC-IRC-IRC
                          Input orientation:                          
 ---------------------------------------------------------------------
 Center     Atomic      Atomic             Coordinates (Angstroms)
 Number     Number       Type             X           Y           Z
 ---------------------------------------------------------------------
      1          6           0        1.263235    0.754075   -0.341748
      2          6           0       -0.006967    1.238442    0.365703
      3          6           0       -1.017206    0.116104    0.231815
      4          8           0        1.499960   -0.571417    0.123364
      5          8           0        0.239186   -1.250060   -0.078410
      6          8           0       -2.026991   -0.006623   -0.380294
      7          1           0       -0.283645   -1.200518    0.952994
      8          1           0        1.138702    0.760284   -1.431848
      9          1           0        2.150759    1.328398   -0.063010
     10          1           0       -1.033763   -0.541616    1.493270
     11          1           0       -0.439068    2.130788   -0.098153
     12          1           0        0.188852    1.428959    1.423441
 ---------------------------------------------------------------------
                    Distance matrix (angstroms):
                    1          2          3          4          5
     1  C    0.000000
     2  C    1.532485   0.000000
     3  C    2.436471   1.515965   0.000000
     4  O    1.424534   2.367519   2.611622   0.000000
     5  O    2.265961   2.539778   1.881798   1.445967   0.000000
     6  O    3.377237   2.487407   1.187183   3.607221   2.602465
     7  H    2.808847   2.523883   1.670839   2.065260   1.157411
     8  H    1.097208   2.184578   2.798335   2.079091   2.585036
     9  H    1.093271   2.201743   3.404788   2.016822   3.209797
    10  H    3.212834   2.343998   1.422723   2.880500   2.143005
    11  H    2.202842   1.094603   2.121809   3.333289   3.448269
    12  H    2.173858   1.092452   2.144326   2.722261   3.071682
                    6          7          8          9         10
     6  O    0.000000
     7  H    2.498458   0.000000
     8  H    3.422794   3.399306   0.000000
     9  H    4.397334   3.654313   1.794640   0.000000
    10  H    2.186999   1.135221   3.869220   4.007511   0.000000
    11  H    2.677616   3.496665   2.479190   2.711508   3.166707
    12  H    3.197548   2.712696   3.082534   2.463479   2.320093
                   11         12
    11  H    0.000000
    12  H    1.789440   0.000000
 Symmetry turned off by external request.
 Stoichiometry    C3H6O3
 Framework group  C1[X(C3H6O3)]
 Deg. of freedom    30
 Full point group                 C1      NOp   1
 Rotational constants (GHZ):           6.3498067           3.2540255           2.4288771
 Standard basis: 6-31+G(d) (6D, 7F)
   126 basis functions,   216 primitive gaussians,   126 cartesian basis functions
    24 alpha electrons       24 beta electrons
       nuclear repulsion energy       255.6456941893 Hartrees.
 NAtoms=   12 NActive=   12 NUniq=   12 SFac= 1.00D+00 NAtFMM=   60 NAOKFM=F Big=F
 Integral buffers will be    131072 words long.
 Raffenetti 2 integral format.
 Two-electron integral symmetry is turned off.
 One-electron integrals computed using PRISM.
 NBasis=   126 RedAO= T EigKep=  1.18D-04  NBF=   126
 NBsUse=   126 1.00D-06 EigRej= -1.00D+00 NBFU=   126
 Initial guess from the checkpoint file:  "/scratch/bell/zhao922/YARP/paper-example/KHP-network/pp_0/IRC-folder/Gau-60556.chk"
 B after Tr=     0.000691    0.000176   -0.001635
         Rot=    1.000000   -0.000265    0.000065   -0.000030 Ang=  -0.03 deg.
 ExpMin= 4.38D-02 ExpMax= 5.48D+03 ExpMxC= 8.25D+02 IAcc=3 IRadAn=         5 AccDes= 0.00D+00
 Harris functional with IExCor=  402 and IRadAn=       5 diagonalized for initial guess.
 HarFok:  IExCor=  402 AccDes= 0.00D+00 IRadAn=         5 IDoV= 1 UseB2=F ITyADJ=14
 ICtDFT=  3500011 ScaDFX=  1.000000  1.000000  1.000000  1.000000
 FoFCou: FMM=F IPFlag=           0 FMFlag=      100000 FMFlg1=           0
         NFxFlg=           0 DoJE=T BraDBF=F KetDBF=T FulRan=T
         wScrn=  0.000000 ICntrl=       500 IOpCl=  0 I1Cent=   200000004 NGrid=           0
         NMat0=    1 NMatS0=      1 NMatT0=    0 NMatD0=    1 NMtDS0=    0 NMtDT0=    0
 Symmetry not used in FoFCou.
 Keep R1 ints in memory in canonical form, NReq=47237243.
 Requested convergence on RMS density matrix=1.00D-08 within 128 cycles.
 Requested convergence on MAX density matrix=1.00D-06.
 Requested convergence on             energy=1.00D-06.
 No special actions if energy rises.
 SCF Done:  E(RB3LYP) =  -343.407900319     A.U. after   12 cycles
            NFock= 12  Conv=0.70D-08     -V/T= 2.0088
 DoSCS=F DFT=T ScalE2(SS,OS)=  1.000000  1.000000
 Range of M.O.s used for correlation:     1   126
 NBasis=   126 NAE=    24 NBE=    24 NFC=     0 NFV=     0
 NROrb=    126 NOA=    24 NOB=    24 NVA=   102 NVB=   102

 **** Warning!!: The largest alpha MO coefficient is  0.31628258D+02

 Symmetrizing basis deriv contribution to polar:
 IMax=3 JMax=2 DiffMx= 0.00D+00
 G2DrvN: will do    13 centers at a time, making    1 passes.
 Calling FoFCou, ICntrl=  3107 FMM=F I1Cent=   0 AccDes= 0.00D+00.
 End of G2Drv F.D. properties file   721 does not exist.
 End of G2Drv F.D. properties file   722 does not exist.
 End of G2Drv F.D. properties file   788 does not exist.
          IDoAtm=111111111111
          Differentiating once with respect to nuclear coordinates.
 Keep R1 ints in memory in canonical form, NReq=47193258.
          There are    39 degrees of freedom in the 1st order CPHF.  IDoFFX=6 NUNeed=     0.
     33 vectors produced by pass  0 Test12= 6.28D-15 2.56D-09 XBig12= 1.85D-01 2.19D-01.
 AX will form    33 AO Fock derivatives at one time.
     33 vectors produced by pass  1 Test12= 6.28D-15 2.56D-09 XBig12= 2.08D-02 2.49D-02.
     33 vectors produced by pass  2 Test12= 6.28D-15 2.56D-09 XBig12= 5.20D-04 3.34D-03.
     33 vectors produced by pass  3 Test12= 6.28D-15 2.56D-09 XBig12= 3.04D-06 2.04D-04.
     33 vectors produced by pass  4 Test12= 6.28D-15 2.56D-09 XBig12= 6.09D-09 9.15D-06.
     28 vectors produced by pass  5 Test12= 6.28D-15 2.56D-09 XBig12= 7.55D-12 3.27D-07.
      3 vectors produced by pass  6 Test12= 6.28D-15 2.56D-09 XBig12= 6.63D-15 1.04D-08.
 InvSVY:  IOpt=1 It=  1 EMax= 3.33D-15
 Solved reduced A of dimension   196 with    33 vectors.
 End of Minotr F.D. properties file   721 does not exist.
 End of Minotr F.D. properties file   722 does not exist.
 End of Minotr F.D. properties file   788 does not exist.
 Calling FoFJK, ICntrl=    100127 FMM=F ISym2X=0 I1Cent= 0 IOpClX= 0 NMat=1 NMatS=1 NMatT=0.
 -------------------------------------------------------------------
 Center     Atomic                   Forces (Hartrees/Bohr)
 Number     Number              X              Y              Z
 -------------------------------------------------------------------
      1        6          -0.002869285    0.004075248   -0.000260600
      2        6           0.002223685    0.001540696   -0.008344151
      3        6          -0.024998217    0.005322700    0.053609399
      4        8           0.004536433   -0.003500759    0.001661879
      5        8           0.005065085   -0.016233363    0.018142345
      6        8          -0.004900634    0.004099820   -0.016504322
      7        1           0.024965287   -0.012001451   -0.029436109
      8        1           0.000353549   -0.000268829   -0.000010032
      9        1           0.000635129   -0.000970194   -0.000065307
     10        1          -0.005855341    0.017422230   -0.017589800
     11        1           0.001037467    0.000521492   -0.000815156
     12        1          -0.000193158   -0.000007591   -0.000388146
 -------------------------------------------------------------------
 Cartesian Forces:  Max     0.053609399 RMS     0.013825248
 IRC-IRC-IRC-IRC-IRC-IRC-IRC-IRC-IRC-IRC-IRC-IRC-IRC-IRC-IRC-IRC-IRC-IRC
 Pt  3 Step number   1 out of a maximum of 100
 Modified Bulirsch-Stoer Extrapolation Cycles:
    EPS =    0.000010000000000
      PEZero:  N= 2 I= 1 D=  8.46D-04 Err=  4.62D-05
      PEZero:  N= 3 I= 2 D=  8.46D-04 Err=  3.08D-05
      PEZero:  N= 3 I= 1 D=  1.69D-03 Err=  3.58D-08
 Maximum DWI energy   std dev =  0.000030396 at pt    27
 Maximum DWI gradient std dev =  0.008454684 at pt    26
 CORRECTOR INTEGRATION CONVERGENCE:
   Recorrection delta-x convergence threshold:    0.010000
   Delta-x Convergence Met
 Point Number:   3          Path Number:   1
   CHANGE IN THE REACTION COORDINATE =    0.16240
   NET REACTION COORDINATE UP TO THIS POINT =    0.48719
  # OF POINTS ALONG THE PATH =   3
  # OF STEPS =   1

 Calculating another point on the path.
 IRC-IRC-IRC-IRC-IRC-IRC-IRC-IRC-IRC-IRC-IRC-IRC-IRC-IRC-IRC-IRC-IRC-IRC
                          Input orientation:                          
 ---------------------------------------------------------------------
 Center     Atomic      Atomic             Coordinates (Angstroms)
 Number     Number       Type             X           Y           Z
 ---------------------------------------------------------------------
      1          6           0        1.262816    0.754665   -0.341784
      2          6           0       -0.006658    1.238693    0.364485
      3          6           0       -1.020773    0.116854    0.239549
      4          8           0        1.500459   -0.571791    0.123556
      5          8           0        0.239814   -1.251824   -0.076676
      6          8           0       -2.027541   -0.006167   -0.382095
      7          1           0       -0.242124   -1.221482    0.906210
      8          1           0        1.139305    0.759802   -1.431868
      9          1           0        2.151861    1.326719   -0.063113
     10          1           0       -1.043900   -0.511745    1.463104
     11          1           0       -0.437233    2.131741   -0.099551
     12          1           0        0.188570    1.429007    1.422756
 ---------------------------------------------------------------------
                    Distance matrix (angstroms):
                    1          2          3          4          5
     1  C    0.000000
     2  C    1.531229   0.000000
     3  C    2.441215   1.517420   0.000000
     4  O    1.425659   2.367975   2.616161   0.000000
     5  O    2.267777   2.541269   1.887421   1.446293   0.000000
     6  O    3.377417   2.488178   1.189604   3.608656   2.604965
     7  H    2.779836   2.530093   1.685786   2.017732   1.095102
     8  H    1.097071   2.183908   2.805878   2.079162   2.586942
     9  H    1.093299   2.202224   3.408956   2.015814   3.210138
    10  H    3.190980   2.312330   1.375775   2.876066   2.136951
    11  H    2.201177   1.094650   2.124919   3.333694   3.450715
    12  H    2.173095   1.092827   2.141083   2.722530   3.072096
                    6          7          8          9         10
     6  O    0.000000
     7  H    2.514843   0.000000
     8  H    3.423105   3.361612   0.000000
     9  H    4.398379   3.628233   1.794479   0.000000
    10  H    2.151259   1.206939   3.842405   3.990259   0.000000
    11  H    2.679471   3.506242   2.478459   2.711604   3.130169
    12  H    3.198181   2.734485   3.082306   2.464301   2.299375
                   11         12
    11  H    0.000000
    12  H    1.789661   0.000000
 Symmetry turned off by external request.
 Stoichiometry    C3H6O3
 Framework group  C1[X(C3H6O3)]
 Deg. of freedom    30
 Full point group                 C1      NOp   1
 Rotational constants (GHZ):           6.3519674           3.2534950           2.4257945
 Standard basis: 6-31+G(d) (6D, 7F)
   126 basis functions,   216 primitive gaussians,   126 cartesian basis functions
    24 alpha electrons       24 beta electrons
       nuclear repulsion energy       255.8226748533 Hartrees.
 NAtoms=   12 NActive=   12 NUniq=   12 SFac= 1.00D+00 NAtFMM=   60 NAOKFM=F Big=F
 Integral buffers will be    131072 words long.
 Raffenetti 2 integral format.
 Two-electron integral symmetry is turned off.
 One-electron integrals computed using PRISM.
 NBasis=   126 RedAO= T EigKep=  1.18D-04  NBF=   126
 NBsUse=   126 1.00D-06 EigRej= -1.00D+00 NBFU=   126
 Initial guess from the checkpoint file:  "/scratch/bell/zhao922/YARP/paper-example/KHP-network/pp_0/IRC-folder/Gau-60556.chk"
 B after Tr=     0.000687    0.000171   -0.001587
         Rot=    1.000000   -0.000237    0.000071   -0.000024 Ang=  -0.03 deg.
 ExpMin= 4.38D-02 ExpMax= 5.48D+03 ExpMxC= 8.25D+02 IAcc=3 IRadAn=         5 AccDes= 0.00D+00
 Harris functional with IExCor=  402 and IRadAn=       5 diagonalized for initial guess.
 HarFok:  IExCor=  402 AccDes= 0.00D+00 IRadAn=         5 IDoV= 1 UseB2=F ITyADJ=14
 ICtDFT=  3500011 ScaDFX=  1.000000  1.000000  1.000000  1.000000
 FoFCou: FMM=F IPFlag=           0 FMFlag=      100000 FMFlg1=           0
         NFxFlg=           0 DoJE=T BraDBF=F KetDBF=T FulRan=T
         wScrn=  0.000000 ICntrl=       500 IOpCl=  0 I1Cent=   200000004 NGrid=           0
         NMat0=    1 NMatS0=      1 NMatT0=    0 NMatD0=    1 NMtDS0=    0 NMtDT0=    0
 Symmetry not used in FoFCou.
 Keep R1 ints in memory in canonical form, NReq=47237243.
 Requested convergence on RMS density matrix=1.00D-08 within 128 cycles.
 Requested convergence on MAX density matrix=1.00D-06.
 Requested convergence on             energy=1.00D-06.
 No special actions if energy rises.
 SCF Done:  E(RB3LYP) =  -343.416874729     A.U. after   12 cycles
            NFock= 12  Conv=0.56D-08     -V/T= 2.0087
 DoSCS=F DFT=T ScalE2(SS,OS)=  1.000000  1.000000
 Range of M.O.s used for correlation:     1   126
 NBasis=   126 NAE=    24 NBE=    24 NFC=     0 NFV=     0
 NROrb=    126 NOA=    24 NOB=    24 NVA=   102 NVB=   102

 **** Warning!!: The largest alpha MO coefficient is  0.29984575D+02

 Symmetrizing basis deriv contribution to polar:
 IMax=3 JMax=2 DiffMx= 0.00D+00
 G2DrvN: will do    13 centers at a time, making    1 passes.
 Calling FoFCou, ICntrl=  3107 FMM=F I1Cent=   0 AccDes= 0.00D+00.
 End of G2Drv F.D. properties file   721 does not exist.
 End of G2Drv F.D. properties file   722 does not exist.
 End of G2Drv F.D. properties file   788 does not exist.
          IDoAtm=111111111111
          Differentiating once with respect to nuclear coordinates.
 Keep R1 ints in memory in canonical form, NReq=47193258.
          There are    39 degrees of freedom in the 1st order CPHF.  IDoFFX=6 NUNeed=     0.
     33 vectors produced by pass  0 Test12= 6.28D-15 2.56D-09 XBig12= 1.81D-01 2.09D-01.
 AX will form    33 AO Fock derivatives at one time.
     33 vectors produced by pass  1 Test12= 6.28D-15 2.56D-09 XBig12= 2.00D-02 2.47D-02.
     33 vectors produced by pass  2 Test12= 6.28D-15 2.56D-09 XBig12= 5.06D-04 3.73D-03.
     33 vectors produced by pass  3 Test12= 6.28D-15 2.56D-09 XBig12= 3.12D-06 2.28D-04.
     33 vectors produced by pass  4 Test12= 6.28D-15 2.56D-09 XBig12= 6.18D-09 9.40D-06.
     27 vectors produced by pass  5 Test12= 6.28D-15 2.56D-09 XBig12= 7.71D-12 3.36D-07.
      3 vectors produced by pass  6 Test12= 6.28D-15 2.56D-09 XBig12= 6.74D-15 1.04D-08.
 InvSVY:  IOpt=1 It=  1 EMax= 1.33D-15
 Solved reduced A of dimension   195 with    33 vectors.
 End of Minotr F.D. properties file   721 does not exist.
 End of Minotr F.D. properties file   722 does not exist.
 End of Minotr F.D. properties file   788 does not exist.
 Calling FoFJK, ICntrl=    100127 FMM=F ISym2X=0 I1Cent= 0 IOpClX= 0 NMat=1 NMatS=1 NMatT=0.
 -------------------------------------------------------------------
 Center     Atomic                   Forces (Hartrees/Bohr)
 Number     Number              X              Y              Z
 -------------------------------------------------------------------
      1        6          -0.003667319    0.005106723   -0.000296606
      2        6           0.002564351    0.002428155   -0.010679182
      3        6          -0.030580941    0.006529057    0.066756241
      4        8           0.005853223   -0.004286683    0.002341411
      5        8           0.009397003   -0.020382557    0.014750843
      6        8          -0.006607585    0.005391256   -0.020994086
      7        1           0.027705193   -0.015238427   -0.028431039
      8        1           0.000432474   -0.000365715   -0.000018389
      9        1           0.000811308   -0.001228537   -0.000066595
     10        1          -0.007125953    0.021226704   -0.021847369
     11        1           0.001371509    0.000722853   -0.001013241
     12        1          -0.000153263    0.000097172   -0.000501989
 -------------------------------------------------------------------
 Cartesian Forces:  Max     0.066756241 RMS     0.016403138
 IRC-IRC-IRC-IRC-IRC-IRC-IRC-IRC-IRC-IRC-IRC-IRC-IRC-IRC-IRC-IRC-IRC-IRC
 Pt  4 Step number   1 out of a maximum of 100
 Modified Bulirsch-Stoer Extrapolation Cycles:
    EPS =    0.000010000000000
      PEZero:  N= 2 I= 1 D=  8.46D-04 Err=  8.77D-05
      PEZero:  N= 3 I= 2 D=  8.46D-04 Err=  5.84D-05
      PEZero:  N= 3 I= 1 D=  1.69D-03 Err=  4.99D-08
 Maximum DWI energy   std dev =  0.000042665 at pt    28
 Maximum DWI gradient std dev =  0.010225928 at pt    26
 CORRECTOR INTEGRATION CONVERGENCE:
   Recorrection delta-x convergence threshold:    0.010000
   Delta-x Convergence Met
 Point Number:   4          Path Number:   1
   CHANGE IN THE REACTION COORDINATE =    0.16233
   NET REACTION COORDINATE UP TO THIS POINT =    0.64953
  # OF POINTS ALONG THE PATH =   4
  # OF STEPS =   1

 Calculating another point on the path.
 IRC-IRC-IRC-IRC-IRC-IRC-IRC-IRC-IRC-IRC-IRC-IRC-IRC-IRC-IRC-IRC-IRC-IRC
                          Input orientation:                          
 ---------------------------------------------------------------------
 Center     Atomic      Atomic             Coordinates (Angstroms)
 Number     Number       Type             X           Y           Z
 ---------------------------------------------------------------------
      1          6           0        1.262329    0.755331   -0.341822
      2          6           0       -0.006337    1.239048    0.363058
      3          6           0       -1.024799    0.117721    0.248365
      4          8           0        1.501056   -0.572210    0.123795
      5          8           0        0.240933   -1.253861   -0.075633
      6          8           0       -2.028215   -0.005615   -0.384202
      7          1           0       -0.201867   -1.245366    0.868497
      8          1           0        1.139971    0.759211   -1.431904
      9          1           0        2.153136    1.324790   -0.063213
     10          1           0       -1.054804   -0.479080    1.428956
     11          1           0       -0.435028    2.132927   -0.101153
     12          1           0        0.188434    1.429291    1.421925
 ---------------------------------------------------------------------
                    Distance matrix (angstroms):
                    1          2          3          4          5
     1  C    0.000000
     2  C    1.529820   0.000000
     3  C    2.446593   1.519142   0.000000
     4  O    1.426939   2.368573   2.621348   0.000000
     5  O    2.269572   2.543263   1.894278   1.446489   0.000000
     6  O    3.377649   2.489091   1.192559   3.610380   2.608134
     7  H    2.758900   2.542835   1.708739   1.976782   1.042845
     8  H    1.096935   2.183152   2.814434   2.079246   2.588474
     9  H    1.093363   2.202812   3.413702   2.014644   3.210314
    10  H    3.166785   2.277583   1.323204   2.871331   2.131433
    11  H    2.199253   1.094663   2.128625   3.334186   3.453680
    12  H    2.172159   1.093310   2.137614   2.722889   3.073230
                    6          7          8          9         10
     6  O    0.000000
     7  H    2.538067   0.000000
     8  H    3.423454   3.333272   0.000000
     9  H    4.399625   3.608299   1.794352   0.000000
    10  H    2.111691   1.276248   3.812469   3.971321   0.000000
    11  H    2.681739   3.522421   2.477624   2.711663   3.089974
    12  H    3.199153   2.759059   3.082008   2.465077   2.277624
                   11         12
    11  H    0.000000
    12  H    1.789853   0.000000
 Symmetry turned off by external request.
 Stoichiometry    C3H6O3
 Framework group  C1[X(C3H6O3)]
 Deg. of freedom    30
 Full point group                 C1      NOp   1
 Rotational constants (GHZ):           6.3505556           3.2517738           2.4220564
 Standard basis: 6-31+G(d) (6D, 7F)
   126 basis functions,   216 primitive gaussians,   126 cartesian basis functions
    24 alpha electrons       24 beta electrons
       nuclear repulsion energy       255.9563182611 Hartrees.
 NAtoms=   12 NActive=   12 NUniq=   12 SFac= 1.00D+00 NAtFMM=   60 NAOKFM=F Big=F
 Integral buffers will be    131072 words long.
 Raffenetti 2 integral format.
 Two-electron integral symmetry is turned off.
 One-electron integrals computed using PRISM.
 NBasis=   126 RedAO= T EigKep=  1.19D-04  NBF=   126
 NBsUse=   126 1.00D-06 EigRej= -1.00D+00 NBFU=   126
 Initial guess from the checkpoint file:  "/scratch/bell/zhao922/YARP/paper-example/KHP-network/pp_0/IRC-folder/Gau-60556.chk"
 B after Tr=     0.000660    0.000165   -0.001486
         Rot=    1.000000   -0.000177    0.000083   -0.000010 Ang=  -0.02 deg.
 ExpMin= 4.38D-02 ExpMax= 5.48D+03 ExpMxC= 8.25D+02 IAcc=3 IRadAn=         5 AccDes= 0.00D+00
 Harris functional with IExCor=  402 and IRadAn=       5 diagonalized for initial guess.
 HarFok:  IExCor=  402 AccDes= 0.00D+00 IRadAn=         5 IDoV= 1 UseB2=F ITyADJ=14
 ICtDFT=  3500011 ScaDFX=  1.000000  1.000000  1.000000  1.000000
 FoFCou: FMM=F IPFlag=           0 FMFlag=      100000 FMFlg1=           0
         NFxFlg=           0 DoJE=T BraDBF=F KetDBF=T FulRan=T
         wScrn=  0.000000 ICntrl=       500 IOpCl=  0 I1Cent=   200000004 NGrid=           0
         NMat0=    1 NMatS0=      1 NMatT0=    0 NMatD0=    1 NMtDS0=    0 NMtDT0=    0
 Symmetry not used in FoFCou.
 Keep R1 ints in memory in canonical form, NReq=47237243.
 Requested convergence on RMS density matrix=1.00D-08 within 128 cycles.
 Requested convergence on MAX density matrix=1.00D-06.
 Requested convergence on             energy=1.00D-06.
 No special actions if energy rises.
 SCF Done:  E(RB3LYP) =  -343.426175118     A.U. after   12 cycles
            NFock= 12  Conv=0.43D-08     -V/T= 2.0085
 DoSCS=F DFT=T ScalE2(SS,OS)=  1.000000  1.000000
 Range of M.O.s used for correlation:     1   126
 NBasis=   126 NAE=    24 NBE=    24 NFC=     0 NFV=     0
 NROrb=    126 NOA=    24 NOB=    24 NVA=   102 NVB=   102

 **** Warning!!: The largest alpha MO coefficient is  0.26924152D+02

 Symmetrizing basis deriv contribution to polar:
 IMax=3 JMax=2 DiffMx= 0.00D+00
 G2DrvN: will do    13 centers at a time, making    1 passes.
 Calling FoFCou, ICntrl=  3107 FMM=F I1Cent=   0 AccDes= 0.00D+00.
 End of G2Drv F.D. properties file   721 does not exist.
 End of G2Drv F.D. properties file   722 does not exist.
 End of G2Drv F.D. properties file   788 does not exist.
          IDoAtm=111111111111
          Differentiating once with respect to nuclear coordinates.
 Keep R1 ints in memory in canonical form, NReq=47193258.
          There are    39 degrees of freedom in the 1st order CPHF.  IDoFFX=6 NUNeed=     0.
     33 vectors produced by pass  0 Test12= 6.28D-15 2.56D-09 XBig12= 1.75D-01 1.63D-01.
 AX will form    33 AO Fock derivatives at one time.
     33 vectors produced by pass  1 Test12= 6.28D-15 2.56D-09 XBig12= 1.91D-02 2.41D-02.
     33 vectors produced by pass  2 Test12= 6.28D-15 2.56D-09 XBig12= 4.94D-04 3.76D-03.
     33 vectors produced by pass  3 Test12= 6.28D-15 2.56D-09 XBig12= 3.14D-06 2.11D-04.
     33 vectors produced by pass  4 Test12= 6.28D-15 2.56D-09 XBig12= 6.03D-09 1.09D-05.
     27 vectors produced by pass  5 Test12= 6.28D-15 2.56D-09 XBig12= 7.52D-12 3.61D-07.
      3 vectors produced by pass  6 Test12= 6.28D-15 2.56D-09 XBig12= 6.64D-15 1.03D-08.
 InvSVY:  IOpt=1 It=  1 EMax= 1.33D-15
 Solved reduced A of dimension   195 with    33 vectors.
 End of Minotr F.D. properties file   721 does not exist.
 End of Minotr F.D. properties file   722 does not exist.
 End of Minotr F.D. properties file   788 does not exist.
 Calling FoFJK, ICntrl=    100127 FMM=F ISym2X=0 I1Cent= 0 IOpClX= 0 NMat=1 NMatS=1 NMatT=0.
 -------------------------------------------------------------------
 Center     Atomic                   Forces (Hartrees/Bohr)
 Number     Number              X              Y              Z
 -------------------------------------------------------------------
      1        6          -0.004172042    0.005581086   -0.000314103
      2        6           0.002599306    0.003295664   -0.012329240
      3        6          -0.034254444    0.007843242    0.074570475
      4        8           0.006982677   -0.004721225    0.002781517
      5        8           0.015918660   -0.023122246    0.004484164
      6        8          -0.007857524    0.006482075   -0.024283816
      7        1           0.025218862   -0.017082884   -0.019246135
      8        1           0.000467114   -0.000435267   -0.000032429
      9        1           0.000913513   -0.001379205   -0.000070506
     10        1          -0.007419233    0.022352386   -0.023788254
     11        1           0.001611882    0.000873193   -0.001151291
     12        1          -0.000008770    0.000313181   -0.000620382
 -------------------------------------------------------------------
 Cartesian Forces:  Max     0.074570475 RMS     0.017497159
 IRC-IRC-IRC-IRC-IRC-IRC-IRC-IRC-IRC-IRC-IRC-IRC-IRC-IRC-IRC-IRC-IRC-IRC
 Pt  5 Step number   1 out of a maximum of 100
 Modified Bulirsch-Stoer Extrapolation Cycles:
    EPS =    0.000010000000000
      PEZero:  N= 2 I= 1 D=  8.46D-04 Err=  1.44D-04
      PEZero:  N= 3 I= 2 D=  8.46D-04 Err=  9.57D-05
      PEZero:  N= 3 I= 1 D=  1.69D-03 Err=  2.87D-07
 Maximum DWI energy   std dev =  0.000040450 at pt    28
 Maximum DWI gradient std dev =  0.011227411 at pt    26
 CORRECTOR INTEGRATION CONVERGENCE:
   Recorrection delta-x convergence threshold:    0.010000
   Delta-x Convergence Met
 Point Number:   5          Path Number:   1
   CHANGE IN THE REACTION COORDINATE =    0.16212
   NET REACTION COORDINATE UP TO THIS POINT =    0.81165
  # OF POINTS ALONG THE PATH =   5
  # OF STEPS =   1

 Calculating another point on the path.
 IRC-IRC-IRC-IRC-IRC-IRC-IRC-IRC-IRC-IRC-IRC-IRC-IRC-IRC-IRC-IRC-IRC-IRC
                          Input orientation:                          
 ---------------------------------------------------------------------
 Center     Atomic      Atomic             Coordinates (Angstroms)
 Number     Number       Type             X           Y           Z
 ---------------------------------------------------------------------
      1          6           0        1.261754    0.756075   -0.341865
      2          6           0       -0.006003    1.239542    0.361336
      3          6           0       -1.029559    0.118878    0.258593
      4          8           0        1.501814   -0.572690    0.124080
      5          8           0        0.242834   -1.256276   -0.075688
      6          8           0       -2.029040   -0.004914   -0.386760
      7          1           0       -0.164890   -1.273271    0.845594
      8          1           0        1.140716    0.758485   -1.431971
      9          1           0        2.154611    1.322554   -0.063337
     10          1           0       -1.066428   -0.444137    1.391236
     11          1           0       -0.432339    2.134404   -0.103075
     12          1           0        0.188602    1.430041    1.420816
 ---------------------------------------------------------------------
                    Distance matrix (angstroms):
                    1          2          3          4          5
     1  C    0.000000
     2  C    1.528215   0.000000
     3  C    2.452893   1.521220   0.000000
     4  O    1.428408   2.369386   2.627587   0.000000
     5  O    2.271256   2.545981   1.903096   1.446454   0.000000
     6  O    3.377934   2.490179   1.196146   3.612514   2.612294
     7  H    2.750202   2.563977   1.740776   1.946612   1.007614
     8  H    1.096808   2.182277   2.824394   2.079355   2.589394
     9  H    1.093467   2.203519   3.419271   2.013261   3.210204
    10  H    3.140793   2.240529   1.265395   2.866719   2.127346
    11  H    2.196989   1.094632   2.133031   3.334803   3.457357
    12  H    2.170928   1.093918   2.133970   2.723414   3.075510
                    6          7          8          9         10
     6  O    0.000000
     7  H    2.569529   0.000000
     8  H    3.423828   3.319629   0.000000
     9  H    4.401103   3.597853   1.794244   0.000000
    10  H    2.069011   1.340880   3.779985   3.951212   0.000000
    11  H    2.684513   3.547358   2.476614   2.711640   3.046951
    12  H    3.200681   2.786347   3.081542   2.465655   2.255775
                   11         12
    11  H    0.000000
    12  H    1.789955   0.000000
 Symmetry turned off by external request.
 Stoichiometry    C3H6O3
 Framework group  C1[X(C3H6O3)]
 Deg. of freedom    30
 Full point group                 C1      NOp   1
 Rotational constants (GHZ):           6.3436411           3.2482478           2.4173817
 Standard basis: 6-31+G(d) (6D, 7F)
   126 basis functions,   216 primitive gaussians,   126 cartesian basis functions
    24 alpha electrons       24 beta electrons
       nuclear repulsion energy       255.9888356051 Hartrees.
 NAtoms=   12 NActive=   12 NUniq=   12 SFac= 1.00D+00 NAtFMM=   60 NAOKFM=F Big=F
 Integral buffers will be    131072 words long.
 Raffenetti 2 integral format.
 Two-electron integral symmetry is turned off.
 One-electron integrals computed using PRISM.
 NBasis=   126 RedAO= T EigKep=  1.19D-04  NBF=   126
 NBsUse=   126 1.00D-06 EigRej= -1.00D+00 NBFU=   126
 Initial guess from the checkpoint file:  "/scratch/bell/zhao922/YARP/paper-example/KHP-network/pp_0/IRC-folder/Gau-60556.chk"
 B after Tr=     0.000601    0.000130   -0.001266
         Rot=    1.000000   -0.000080    0.000095    0.000010 Ang=  -0.01 deg.
 ExpMin= 4.38D-02 ExpMax= 5.48D+03 ExpMxC= 8.25D+02 IAcc=3 IRadAn=         5 AccDes= 0.00D+00
 Harris functional with IExCor=  402 and IRadAn=       5 diagonalized for initial guess.
 HarFok:  IExCor=  402 AccDes= 0.00D+00 IRadAn=         5 IDoV= 1 UseB2=F ITyADJ=14
 ICtDFT=  3500011 ScaDFX=  1.000000  1.000000  1.000000  1.000000
 FoFCou: FMM=F IPFlag=           0 FMFlag=      100000 FMFlg1=           0
         NFxFlg=           0 DoJE=T BraDBF=F KetDBF=T FulRan=T
         wScrn=  0.000000 ICntrl=       500 IOpCl=  0 I1Cent=   200000004 NGrid=           0
         NMat0=    1 NMatS0=      1 NMatT0=    0 NMatD0=    1 NMtDS0=    0 NMtDT0=    0
 Symmetry not used in FoFCou.
 Keep R1 ints in memory in canonical form, NReq=47237243.
 Requested convergence on RMS density matrix=1.00D-08 within 128 cycles.
 Requested convergence on MAX density matrix=1.00D-06.
 Requested convergence on             energy=1.00D-06.
 No special actions if energy rises.
 SCF Done:  E(RB3LYP) =  -343.434762301     A.U. after   12 cycles
            NFock= 12  Conv=0.32D-08     -V/T= 2.0084
 DoSCS=F DFT=T ScalE2(SS,OS)=  1.000000  1.000000
 Range of M.O.s used for correlation:     1   126
 NBasis=   126 NAE=    24 NBE=    24 NFC=     0 NFV=     0
 NROrb=    126 NOA=    24 NOB=    24 NVA=   102 NVB=   102

 **** Warning!!: The largest alpha MO coefficient is  0.33323084D+02

 Symmetrizing basis deriv contribution to polar:
 IMax=3 JMax=2 DiffMx= 0.00D+00
 G2DrvN: will do    13 centers at a time, making    1 passes.
 Calling FoFCou, ICntrl=  3107 FMM=F I1Cent=   0 AccDes= 0.00D+00.
 End of G2Drv F.D. properties file   721 does not exist.
 End of G2Drv F.D. properties file   722 does not exist.
 End of G2Drv F.D. properties file   788 does not exist.
          IDoAtm=111111111111
          Differentiating once with respect to nuclear coordinates.
 Keep R1 ints in memory in canonical form, NReq=47193258.
          There are    39 degrees of freedom in the 1st order CPHF.  IDoFFX=6 NUNeed=     0.
     33 vectors produced by pass  0 Test12= 6.28D-15 2.56D-09 XBig12= 1.70D-01 1.39D-01.
 AX will form    33 AO Fock derivatives at one time.
     33 vectors produced by pass  1 Test12= 6.28D-15 2.56D-09 XBig12= 1.81D-02 2.41D-02.
     33 vectors produced by pass  2 Test12= 6.28D-15 2.56D-09 XBig12= 4.87D-04 3.68D-03.
     33 vectors produced by pass  3 Test12= 6.28D-15 2.56D-09 XBig12= 3.11D-06 2.23D-04.
     33 vectors produced by pass  4 Test12= 6.28D-15 2.56D-09 XBig12= 5.68D-09 1.09D-05.
     28 vectors produced by pass  5 Test12= 6.28D-15 2.56D-09 XBig12= 7.02D-12 3.90D-07.
      3 vectors produced by pass  6 Test12= 6.28D-15 2.56D-09 XBig12= 6.27D-15 8.95D-09.
 InvSVY:  IOpt=1 It=  1 EMax= 2.44D-15
 Solved reduced A of dimension   196 with    33 vectors.
 End of Minotr F.D. properties file   721 does not exist.
 End of Minotr F.D. properties file   722 does not exist.
 End of Minotr F.D. properties file   788 does not exist.
 Calling FoFJK, ICntrl=    100127 FMM=F ISym2X=0 I1Cent= 0 IOpClX= 0 NMat=1 NMatS=1 NMatT=0.
 -------------------------------------------------------------------
 Center     Atomic                   Forces (Hartrees/Bohr)
 Number     Number              X              Y              Z
 -------------------------------------------------------------------
      1        6          -0.004310494    0.005386012   -0.000326292
      2        6           0.002317232    0.003990203   -0.013110701
      3        6          -0.036146861    0.010039401    0.075194139
      4        8           0.007985797   -0.004725026    0.002819019
      5        8           0.021815577   -0.024133497   -0.006677637
      6        8          -0.008333531    0.007318262   -0.026095350
      7        1           0.020301101   -0.017815269   -0.007935666
      8        1           0.000458903   -0.000466034   -0.000051072
      9        1           0.000914944   -0.001393988   -0.000086426
     10        1          -0.006953663    0.020218427   -0.021741287
     11        1           0.001721538    0.000948919   -0.001235680
     12        1           0.000229457    0.000632590   -0.000753047
 -------------------------------------------------------------------
 Cartesian Forces:  Max     0.075194139 RMS     0.017508188
 IRC-IRC-IRC-IRC-IRC-IRC-IRC-IRC-IRC-IRC-IRC-IRC-IRC-IRC-IRC-IRC-IRC-IRC
 Pt  6 Step number   1 out of a maximum of 100
 Modified Bulirsch-Stoer Extrapolation Cycles:
    EPS =    0.000010000000000
      PEZero:  N= 2 I= 1 D=  8.45D-04 Err=  1.50D-04
      PEZero:  N= 3 I= 2 D=  8.45D-04 Err=  9.98D-05
      PEZero:  N= 3 I= 1 D=  1.69D-03 Err=  5.84D-07
 Maximum DWI energy   std dev =  0.000026333 at pt    28
 Maximum DWI gradient std dev =  0.010283758 at pt    35
 CORRECTOR INTEGRATION CONVERGENCE:
   Recorrection delta-x convergence threshold:    0.010000
   Delta-x Convergence Met
 Point Number:   6          Path Number:   1
   CHANGE IN THE REACTION COORDINATE =    0.16194
   NET REACTION COORDINATE UP TO THIS POINT =    0.97359
  # OF POINTS ALONG THE PATH =   6
  # OF STEPS =   1

 Calculating another point on the path.
 IRC-IRC-IRC-IRC-IRC-IRC-IRC-IRC-IRC-IRC-IRC-IRC-IRC-IRC-IRC-IRC-IRC-IRC
                          Input orientation:                          
 ---------------------------------------------------------------------
 Center     Atomic      Atomic             Coordinates (Angstroms)
 Number     Number       Type             X           Y           Z
 ---------------------------------------------------------------------
      1          6           0        1.261095    0.756853   -0.341919
      2          6           0       -0.005685    1.240201    0.359301
      3          6           0       -1.035235    0.120653    0.269903
      4          8           0        1.502801   -0.573221    0.124391
      5          8           0        0.245548   -1.259087   -0.076811
      6          8           0       -2.029990   -0.004022   -0.389831
      7          1           0       -0.131118   -1.306070    0.837253
      8          1           0        1.141536    0.757622   -1.432084
      9          1           0        2.156219    1.320071   -0.063519
     10          1           0       -1.078506   -0.410635    1.355609
     11          1           0       -0.429156    2.136178   -0.105420
     12          1           0        0.189277    1.431551    1.419276
 ---------------------------------------------------------------------
                    Distance matrix (angstroms):
                    1          2          3          4          5
     1  C    0.000000
     2  C    1.526456   0.000000
     3  C    2.460123   1.523598   0.000000
     4  O    1.430022   2.370488   2.635196   0.000000
     5  O    2.272802   2.549461   1.914236   1.446230   0.000000
     6  O    3.378234   2.491404   1.200138   3.615110   2.617488
     7  H    2.753970   2.593774   1.781811   1.927415   0.989746
     8  H    1.096702   2.181298   2.835634   2.079488   2.589725
     9  H    1.093603   2.204311   3.425660   2.011670   3.209812
    10  H    3.117428   2.206543   1.209503   2.864520   2.127162
    11  H    2.194406   1.094563   2.137882   3.335583   3.461773
    12  H    2.169290   1.094611   2.130479   2.724184   3.079119
                    6          7          8          9         10
     6  O    0.000000
     7  H    2.608980   0.000000
     8  H    3.424174   3.320897   0.000000
     9  H    4.402731   3.597209   1.794130   0.000000
    10  H    2.029093   1.402869   3.750286   3.933537   0.000000
    11  H    2.687752   3.581414   2.475385   2.711448   3.007078
    12  H    3.202949   2.817086   3.080784   2.465759   2.237180
                   11         12
    11  H    0.000000
    12  H    1.789876   0.000000
 Symmetry turned off by external request.
 Stoichiometry    C3H6O3
 Framework group  C1[X(C3H6O3)]
 Deg. of freedom    30
 Full point group                 C1      NOp   1
 Rotational constants (GHZ):           6.3295841           3.2425132           2.4116224
 Standard basis: 6-31+G(d) (6D, 7F)
   126 basis functions,   216 primitive gaussians,   126 cartesian basis functions
    24 alpha electrons       24 beta electrons
       nuclear repulsion energy       255.8790603393 Hartrees.
 NAtoms=   12 NActive=   12 NUniq=   12 SFac= 1.00D+00 NAtFMM=   60 NAOKFM=F Big=F
 Integral buffers will be    131072 words long.
 Raffenetti 2 integral format.
 Two-electron integral symmetry is turned off.
 One-electron integrals computed using PRISM.
 NBasis=   126 RedAO= T EigKep=  1.20D-04  NBF=   126
 NBsUse=   126 1.00D-06 EigRej= -1.00D+00 NBFU=   126
 Initial guess from the checkpoint file:  "/scratch/bell/zhao922/YARP/paper-example/KHP-network/pp_0/IRC-folder/Gau-60556.chk"
 B after Tr=     0.000551    0.000013   -0.000946
         Rot=    1.000000    0.000006    0.000088    0.000020 Ang=   0.01 deg.
 ExpMin= 4.38D-02 ExpMax= 5.48D+03 ExpMxC= 8.25D+02 IAcc=3 IRadAn=         5 AccDes= 0.00D+00
 Harris functional with IExCor=  402 and IRadAn=       5 diagonalized for initial guess.
 HarFok:  IExCor=  402 AccDes= 0.00D+00 IRadAn=         5 IDoV= 1 UseB2=F ITyADJ=14
 ICtDFT=  3500011 ScaDFX=  1.000000  1.000000  1.000000  1.000000
 FoFCou: FMM=F IPFlag=           0 FMFlag=      100000 FMFlg1=           0
         NFxFlg=           0 DoJE=T BraDBF=F KetDBF=T FulRan=T
         wScrn=  0.000000 ICntrl=       500 IOpCl=  0 I1Cent=   200000004 NGrid=           0
         NMat0=    1 NMatS0=      1 NMatT0=    0 NMatD0=    1 NMtDS0=    0 NMtDT0=    0
 Symmetry not used in FoFCou.
 Keep R1 ints in memory in canonical form, NReq=47237243.
 Requested convergence on RMS density matrix=1.00D-08 within 128 cycles.
 Requested convergence on MAX density matrix=1.00D-06.
 Requested convergence on             energy=1.00D-06.
 No special actions if energy rises.
 SCF Done:  E(RB3LYP) =  -343.442215380     A.U. after   11 cycles
            NFock= 11  Conv=0.90D-08     -V/T= 2.0083
 DoSCS=F DFT=T ScalE2(SS,OS)=  1.000000  1.000000
 Range of M.O.s used for correlation:     1   126
 NBasis=   126 NAE=    24 NBE=    24 NFC=     0 NFV=     0
 NROrb=    126 NOA=    24 NOB=    24 NVA=   102 NVB=   102

 **** Warning!!: The largest alpha MO coefficient is  0.36282958D+02

 Symmetrizing basis deriv contribution to polar:
 IMax=3 JMax=2 DiffMx= 0.00D+00
[...]
  14                   -0.93581   2.53023  -0.45717   2.12487  -0.05583
  15                   -0.92576   2.49824  -0.45872   2.12393  -0.05250
  16                   -0.91645   2.46825  -0.45917   2.12397  -0.05044
  17                   -0.90775   2.44000  -0.45883   2.12472  -0.04929
  18                   -0.89948   2.41301  -0.45802   2.12589  -0.04882
  19                   -0.89148   2.38675  -0.45695   2.12727  -0.04889
  20                   -0.88356   2.36074  -0.45578   2.12870  -0.04939
  21                   -0.87561   2.33458  -0.45459   2.13009  -0.05027
  22                   -0.86752   2.30792  -0.45344   2.13137  -0.05149
  23                   -0.85919   2.28046  -0.45238   2.13249  -0.05302
  24                   -0.85055   2.25196  -0.45143   2.13340  -0.05483
  25                   -0.84154   2.22220  -0.45061   2.13409  -0.05690
  26                   -0.83212   2.19099  -0.44992   2.13454  -0.05919
  27                   -0.82224   2.15820  -0.44938   2.13473  -0.06167
  28                   -0.81190   2.12370  -0.44897   2.13468  -0.06429
  29                   -0.80109   2.08742  -0.44870   2.13439  -0.06701
  30                   -0.78980   2.04933  -0.44853   2.13389  -0.06978
  31                   -0.77807   2.00946  -0.44843   2.13323  -0.07255
  32                   -0.76592   1.96788  -0.44838   2.13246  -0.07527
  33                   -0.75335   1.92474  -0.44833   2.13162  -0.07791
  34                   -0.74038   1.88026  -0.44823   2.13078  -0.08044
  35                   -0.72695   1.83473  -0.44804   2.13001  -0.08283
  36                   -0.71295   1.78858  -0.44772   2.12934  -0.08508
  37                   -0.69814   1.74243  -0.44723   2.12883  -0.08718
  38                   -0.68207   1.69723  -0.44655   2.12852  -0.08914
  39                   -0.66409   1.65434  -0.44567   2.12843  -0.09095
  40                   -0.64367   1.61526  -0.44461   2.12857  -0.09260
  41                   -0.62053   1.58123  -0.44338   2.12893  -0.09410
  42                   -0.59579   1.55007  -0.44209   2.12939  -0.09551
  43                   -0.56935   1.52152  -0.44065   2.13002  -0.09684
  44                   -0.54143   1.49313  -0.43905   2.13080  -0.09816
  45                   -0.51153   1.46278  -0.43721   2.13176  -0.09957
  46                   -0.47890   1.42868  -0.43500   2.13294  -0.10117
  47                   -0.44420   1.39137  -0.43231   2.13442  -0.10309
  48                   -0.41092   1.35623  -0.42913   2.13619  -0.10544
  49                   -0.38378   1.33163  -0.42547   2.13825  -0.10838
  50                   -0.36595   1.32241  -0.42150   2.14046  -0.11205
  51                   -0.35555   1.32382  -0.41759   2.14256  -0.11637
  52                   -0.34899   1.32918  -0.41393   2.14436  -0.12126
  53                   -0.34421   1.33543  -0.41066   2.14578  -0.12668
  54                   -0.34025   1.34167  -0.40785   2.14677  -0.13254
  55                   -0.33661   1.34771  -0.40555   2.14732  -0.13879
  56                   -0.33292   1.35349  -0.40377   2.14745  -0.14531
  57                   -0.32895   1.35901  -0.40250   2.14722  -0.15199
  58                   -0.32454   1.36427  -0.40168   2.14669  -0.15872
  59                   -0.31964   1.36925  -0.40124   2.14596  -0.16536
  60                   -0.31427   1.37392  -0.40109   2.14513  -0.17177
  61                   -0.30854   1.37826  -0.40113   2.14431  -0.17782
  62                   -0.30257   1.38222  -0.40129   2.14361  -0.18335
  63                   -0.29653   1.38577  -0.40149   2.14310  -0.18824
  64                   -0.29055   1.38887  -0.40167   2.14287  -0.19237
  65                   -0.28478   1.39150  -0.40180   2.14296  -0.19564
  66                   -0.27934   1.39366  -0.40183   2.14342  -0.19798
  67                   -0.27432   1.39534  -0.40175   2.14426  -0.19934
  68                   -0.26977   1.39654  -0.40155   2.14546  -0.19970
  69                   -0.26574   1.39728  -0.40123   2.14700  -0.19908
  70                   -0.26224   1.39758  -0.40078   2.14885  -0.19751
  71                   -0.25928   1.39746  -0.40021   2.15094  -0.19505
  72                   -0.25685   1.39695  -0.39954   2.15323  -0.19176
  73                   -0.25495   1.39606  -0.39877   2.15565  -0.18771
  74                   -0.25354   1.39482  -0.39792   2.15815  -0.18299
  75                   -0.25261   1.39324  -0.39699   2.16068  -0.17764
  76                   -0.25214   1.39133  -0.39599   2.16319  -0.17175
  77                   -0.25209   1.38912  -0.39493   2.16563  -0.16535
  78                   -0.25245   1.38660  -0.39380   2.16797  -0.15850
  79                   -0.25320   1.38378  -0.39261   2.17018  -0.15122
  80                   -0.25432   1.38067  -0.39136   2.17223  -0.14353
  81                   -0.25581   1.37727  -0.39004   2.17410  -0.13544
                          X12       Y12       Z12
   1                   -0.00034   1.41700   1.33714
   2                    0.01039   1.40486   1.34636
   3                    0.02150   1.39264   1.35546
   4                    0.03290   1.38044   1.36438
   5                    0.04452   1.36838   1.37303
   6                    0.05619   1.35662   1.38135
   7                    0.06774   1.34531   1.38924
   8                    0.07890   1.33470   1.39663
   9                    0.08940   1.32505   1.40346
  10                    0.09892   1.31673   1.40968
  11                    0.10720   1.31013   1.41527
  12                    0.11413   1.30565   1.42023
  13                    0.11978   1.30351   1.42456
  14                    0.12439   1.30367   1.42829
  15                    0.12825   1.30576   1.43144
  16                    0.13160   1.30924   1.43406
  17                    0.13463   1.31366   1.43624
  18                    0.13745   1.31869   1.43804
  19                    0.14019   1.32417   1.43954
  20                    0.14290   1.32999   1.44076
  21                    0.14564   1.33611   1.44174
  22                    0.14845   1.34250   1.44248
  23                    0.15135   1.34913   1.44300
  24                    0.15436   1.35595   1.44329
  25                    0.15749   1.36291   1.44335
  26                    0.16071   1.36996   1.44318
  27                    0.16401   1.37700   1.44276
  28                    0.16735   1.38394   1.44212
  29                    0.17067   1.39067   1.44125
  30                    0.17392   1.39709   1.44018
  31                    0.17703   1.40308   1.43893
  32                    0.17992   1.40855   1.43754
  33                    0.18254   1.41341   1.43606
  34                    0.18481   1.41761   1.43452
  35                    0.18670   1.42112   1.43296
  36                    0.18818   1.42393   1.43144
  37                    0.18924   1.42606   1.42998
  38                    0.18989   1.42756   1.42863
  39                    0.19016   1.42848   1.42743
  40                    0.19012   1.42895   1.42639
  41                    0.18986   1.42906   1.42553
  42                    0.18956   1.42909   1.42476
  43                    0.18920   1.42902   1.42409
  44                    0.18886   1.42897   1.42344
  45                    0.18858   1.42902   1.42275
  46                    0.18844   1.42931   1.42191
  47                    0.18861   1.43006   1.42080
  48                    0.18929   1.43157   1.41926
  49                    0.19067   1.43419   1.41708
  50                    0.19280   1.43813   1.41418
  51                    0.19547   1.44329   1.41078
  52                    0.19843   1.44951   1.40712
  53                    0.20145   1.45663   1.40337
  54                    0.20430   1.46451   1.39963
  55                    0.20681   1.47297   1.39595
  56                    0.20880   1.48183   1.39240
  57                    0.21021   1.49091   1.38902
  58                    0.21098   1.50003   1.38586
  59                    0.21115   1.50904   1.38295
  60                    0.21080   1.51777   1.38032
  61                    0.21004   1.52609   1.37799
  62                    0.20903   1.53387   1.37600
  63                    0.20791   1.54099   1.37436
  64                    0.20685   1.54734   1.37309
  65                    0.20597   1.55283   1.37221
  66                    0.20538   1.55737   1.37173
  67                    0.20516   1.56091   1.37163
  68                    0.20535   1.56340   1.37192
  69                    0.20598   1.56484   1.37259
  70                    0.20704   1.56523   1.37360
  71                    0.20850   1.56462   1.37494
  72                    0.21031   1.56304   1.37658
  73                    0.21243   1.56056   1.37848
  74                    0.21480   1.55724   1.38063
  75                    0.21736   1.55313   1.38300
  76                    0.22005   1.54829   1.38557
  77                    0.22281   1.54275   1.38834
  78                    0.22559   1.53654   1.39128
  79                    0.22834   1.52969   1.39440
  80                    0.23104   1.52220   1.39769
  81                    0.23365   1.51408   1.40114
 --------------------------------------------------------------------------
 
 Total number of points:                   80
 Total number of gradient calculations:    81
 Total number of Hessian calculations:     81
 IRC-IRC-IRC-IRC-IRC-IRC-IRC-IRC-IRC-IRC-IRC-IRC-IRC-IRC-IRC-IRC-IRC-IRC
                          Input orientation:                          
 ---------------------------------------------------------------------
 Center     Atomic      Atomic             Coordinates (Angstroms)
 Number     Number       Type             X           Y           Z
 ---------------------------------------------------------------------
      1          6           0        1.382259    0.816019   -0.237944
      2          6           0        0.012589    1.254132    0.252661
      3          6           0       -0.805397    0.014271   -0.062839
      4          8           0        1.412536   -0.584298    0.101202
      5          8           0        0.051410   -1.055614   -0.184701
      6          8           0       -1.987332   -0.123394   -0.234475
      7          1           0       -0.783188   -1.486379    2.572927
      8          1           0        1.491973    0.940782   -1.323560
      9          1           0        2.236015    1.257995    0.281719
     10          1           0       -1.248525   -1.092452    2.997742
     11          1           0       -0.407879    2.129149   -0.246615
     12          1           0       -0.000376    1.417000    1.337231
 ---------------------------------------------------------------------
                    Distance matrix (angstroms):
                    1          2          3          4          5
     1  C    0.000000
     2  C    1.519419   0.000000
     3  C    2.336514   1.518518   0.000000
     4  O    1.441119   2.315733   2.303133   0.000000
     5  O    2.297173   2.351110   1.376089   1.468517   0.000000
     6  O    3.498092   2.476805   1.202240   3.447349   2.242315
     7  H    4.229798   3.677947   3.033102   3.427007   2.913181
     8  H    1.098256   2.184317   2.779523   2.088571   2.712530
     9  H    1.092836   2.223619   3.303900   2.026018   3.216027
    10  H    4.586169   3.825223   3.284563   3.966032   3.437896
    11  H    2.220130   1.091661   2.159746   3.285982   3.218305
    12  H    2.180375   1.096807   2.139136   2.743954   2.903924
                    6          7          8          9         10
     6  O    0.000000
     7  H    3.345026   0.000000
     8  H    3.797912   5.123483   0.000000
     9  H    4.473404   4.679402   1.797538   0.000000
    10  H    3.454292   0.743092   5.506181   5.004338   0.000000
    11  H    2.751139   4.600295   2.486254   2.833411   4.648790
    12  H    2.964973   3.251053   3.087669   2.478070   3.257687
                   11         12
    11  H    0.000000
    12  H    1.783755   0.000000
 Symmetry turned off by external request.
 Stoichiometry    C3H6O3
 Framework group  C1[X(C3H6O3)]
 Deg. of freedom    30
 Full point group                 C1      NOp   1
 Rotational constants (GHZ):           6.0003876           3.1777936           2.5453731

 **********************************************************************

            Population analysis using the SCF Density.

 **********************************************************************

 Alpha  occ. eigenvalues --  -19.26496 -19.24999 -19.17392 -10.34839 -10.28118
 Alpha  occ. eigenvalues --  -10.24025  -1.18179  -1.08052  -0.96199  -0.82354
 Alpha  occ. eigenvalues --   -0.67994  -0.61238  -0.55484  -0.52082  -0.49488
 Alpha  occ. eigenvalues --   -0.45653  -0.45460  -0.44425  -0.43104  -0.41785
 Alpha  occ. eigenvalues --   -0.40495  -0.36331  -0.30541  -0.29109
 Alpha virt. eigenvalues --   -0.03900  -0.02532  -0.00364   0.02070   0.02689
 Alpha virt. eigenvalues --    0.03179   0.05463   0.06074   0.07127   0.07397
 Alpha virt. eigenvalues --    0.09569   0.10847   0.12309   0.12661   0.13846
 Alpha virt. eigenvalues --    0.14484   0.18082   0.18523   0.19911   0.21640
 Alpha virt. eigenvalues --    0.22605   0.24845   0.26248   0.27035   0.27585
 Alpha virt. eigenvalues --    0.28256   0.28678   0.30214   0.31611   0.32330
 Alpha virt. eigenvalues --    0.33602   0.33859   0.35351   0.36987   0.40934
 Alpha virt. eigenvalues --    0.47778   0.59157   0.62193   0.63653   0.64671
 Alpha virt. eigenvalues --    0.69993   0.73579   0.75873   0.79959   0.83733
 Alpha virt. eigenvalues --    0.88863   0.92422   0.99342   1.00982   1.05045
 Alpha virt. eigenvalues --    1.06463   1.13096   1.13723   1.17574   1.19669
 Alpha virt. eigenvalues --    1.21764   1.23966   1.25464   1.28402   1.29656
 Alpha virt. eigenvalues --    1.32449   1.36294   1.38962   1.42348   1.46437
 Alpha virt. eigenvalues --    1.52926   1.57202   1.63070   1.68127   1.68564
 Alpha virt. eigenvalues --    1.75947   1.78088   1.80994   1.86158   1.87252
 Alpha virt. eigenvalues --    1.90248   1.92299   1.93435   2.00592   2.05630
 Alpha virt. eigenvalues --    2.09499   2.14596   2.24825   2.27760   2.38269
 Alpha virt. eigenvalues --    2.40385   2.42638   2.49634   2.56524   2.65659
 Alpha virt. eigenvalues --    2.76937   2.82989   2.86470   3.07199   3.19445
 Alpha virt. eigenvalues --    3.23342   4.03425   4.20618   4.31041   4.39680
 Alpha virt. eigenvalues --    4.45785   4.64170
          Condensed to atoms (all electrons):
               1          2          3          4          5          6
     1  C    5.473492  -0.036171  -0.129950   0.123607   0.058188   0.008349
     2  C   -0.036171   6.234271   0.018843  -0.051855  -0.281816  -0.106721
     3  C   -0.129950   0.018843   5.008638   0.010842   0.260269   0.447344
     4  O    0.123607  -0.051855   0.010842   8.050496   0.110035   0.003656
     5  O    0.058188  -0.281816   0.260269   0.110035   8.050974  -0.086669
     6  O    0.008349  -0.106721   0.447344   0.003656  -0.086669   8.178807
     7  H   -0.006312   0.003512   0.025342   0.001095  -0.007472  -0.003929
     8  H    0.376414  -0.034542  -0.009567  -0.053426   0.011354  -0.000342
     9  H    0.407126  -0.057385   0.016603  -0.041713   0.001998  -0.000321
    10  H   -0.003209   0.000526   0.020874   0.000226  -0.005832  -0.002767
    11  H   -0.039208   0.380698  -0.031698   0.005450   0.005112  -0.002964
    12  H   -0.046688   0.389039  -0.035541   0.003912   0.003374  -0.001658
               7          8          9         10         11         12
     1  C   -0.006312   0.376414   0.407126  -0.003209  -0.039208  -0.046688
     2  C    0.003512  -0.034542  -0.057385   0.000526   0.380698   0.389039
     3  C    0.025342  -0.009567   0.016603   0.020874  -0.031698  -0.035541
     4  O    0.001095  -0.053426  -0.041713   0.000226   0.005450   0.003912
     5  O   -0.007472   0.011354   0.001998  -0.005832   0.005112   0.003374
     6  O   -0.003929  -0.000342  -0.000321  -0.002767  -0.002964  -0.001658
     7  H    0.573711  -0.000002  -0.000001   0.390287   0.000001  -0.000209
     8  H   -0.000002   0.533101  -0.035106  -0.000001  -0.002237   0.003523
     9  H   -0.000001  -0.035106   0.493918   0.000002   0.001320  -0.005205
    10  H    0.390287  -0.000001   0.000002   0.599185   0.000001  -0.000081
    11  H    0.000001  -0.002237   0.001320   0.000001   0.455430  -0.020322
    12  H   -0.000209   0.003523  -0.005205  -0.000081  -0.020322   0.451977
 Mulliken charges:
               1
     1  C   -0.185636
     2  C   -0.458399
     3  C    0.398001
     4  O   -0.162325
     5  O   -0.119512
     6  O   -0.432786
     7  H    0.023977
     8  H    0.210829
     9  H    0.218765
    10  H    0.000790
    11  H    0.248417
    12  H    0.257880
 Sum of Mulliken charges =  -0.00000
 Mulliken charges with hydrogens summed into heavy atoms:
               1
     1  C    0.243958
     2  C    0.047898
     3  C    0.398790
     4  O   -0.162325
     5  O   -0.095535
     6  O   -0.432786
 APT charges:
               1
     1  C   -0.797548
     2  C   -0.945346
     3  C    0.082323
     4  O   -0.146439
     5  O   -0.110394
     6  O   -0.134971
     7  H   -0.360570
     8  H    0.440973
     9  H    0.587491
    10  H    0.384632
    11  H    0.528840
    12  H    0.471010
 Sum of APT charges =  -0.00000
 APT charges with hydrogens summed into heavy atoms:
               1
     1  C    0.230915
     2  C    0.054504
     3  C    0.466955
     4  O   -0.146439
     5  O   -0.470964
     6  O   -0.134971
 Electronic spatial extent (au):  <R**2>=            550.9790
 Charge=             -0.0000 electrons
 Dipole moment (field-independent basis, Debye):
    X=              2.6005    Y=              3.6524    Z=              0.3651  Tot=              4.4984
 Quadrupole moment (field-independent basis, Debye-Ang):
   XX=            -41.9489   YY=            -35.3698   ZZ=            -34.8321
   XY=              2.1525   XZ=             -1.5040   YZ=             -0.1682
 Traceless Quadrupole moment (field-independent basis, Debye-Ang):
   XX=             -4.5653   YY=              2.0138   ZZ=              2.5515
   XY=              2.1525   XZ=             -1.5040   YZ=             -0.1682
 Octapole moment (field-independent basis, Debye-Ang**2):
  XXX=             18.2859  YYY=             -2.0533  ZZZ=             -9.3075  XYY=              0.2320
  XXY=              3.8117  XXZ=             -1.4158  XZZ=             -0.7344  YZZ=             -0.3391
  YYZ=             -2.9319  XYZ=              0.3657
 Hexadecapole moment (field-independent basis, Debye-Ang**3):
 XXXX=           -377.9136 YYYY=           -202.0180 ZZZZ=           -140.7513 XXXY=            -11.5172
 XXXZ=             10.3667 YYYX=            -23.1925 YYYZ=             13.0132 ZZZX=              7.9381
 ZZZY=             16.9854 XXYY=            -93.3895 XXZZ=            -81.2060 YYZZ=            -58.4047
 XXYZ=              5.5336 YYXZ=              6.0020 ZZXY=             -6.3655
 N-N= 2.555521864771D+02 E-N=-1.314810652575D+03  KE= 3.404233368896D+02
  Exact polarizability:   0.000   0.000   0.000   0.000   0.000   0.000
 Approx polarizability:  89.316  -0.679  63.241   2.209   3.142  52.170

 This type of calculation cannot be archived.


 I DO NOT KNOW WHAT I MAY APPEAR TO THE WORLD; BUT TO MYSELF
 I SEEM TO HAVE BEEN ONLY LIKE A BOY PLAYING ON THE SEASHORE,
 AND DIVERTING MYSELF IN NOW AND THEN FINDING A SMOOTHER PEBBLE
 OR A PRETTIER SHELL THAN ORDINARY, WHILST THE GREAT OCEAN OF
 TRUTH LAY ALL UNDISCOVERED BEFORE ME.
                                          -- NEWTON (1642-1726)
 Job cpu time:       0 days  6 hours 13 minutes 27.1 seconds.
 Elapsed time:       0 days  0 hours 24 minutes 42.9 seconds.
 File lengths (MBytes):  RWF=     28 Int=      0 D2E=      0 Chk=      4 Scr=      1
 Normal termination of Gaussian 16 at Wed Dec 23 23:51:19 2020.
