 Entering Gaussian System, Link 0=g16
 Initial command:
 /apps/cent7/gaussian/g16-B.01/g16-haswell/g16/l1.exe "/scratch/bell/zhao922/YARP/paper-example/KHP-network/pp_0/IRC-folder/Gau-60944.inp" -scrdir="/scratch/bell/zhao922/YARP/paper-example/KHP-network/pp_0/IRC-folder/"
 Entering Link 1 = /apps/cent7/gaussian/g16-B.01/g16-haswell/g16/l1.exe PID=     60945.
  
 Copyright (c) 1988-2017, Gaussian, Inc.  All Rights Reserved.
  
 This is part of the Gaussian(R) 16 program.  It is based on
 the Gaussian(R) 09 system (copyright 2009, Gaussian, Inc.),
 the Gaussian(R) 03 system (copyright 2003, Gaussian, Inc.),
 the Gaussian(R) 98 system (copyright 1998, Gaussian, Inc.),
 the Gaussian(R) 94 system (copyright 1995, Gaussian, Inc.),
 the Gaussian 92(TM) system (copyright 1992, Gaussian, Inc.),
 the Gaussian 90(TM) system (copyright 1990, Gaussian, Inc.),
 the Gaussian 88(TM) system (copyright 1988, Gaussian, Inc.),
 the Gaussian 86(TM) system (copyright 1986, Carnegie Mellon
 University), and the Gaussian 82(TM) system (copyright 1983,
 Carnegie Mellon University). Gaussian is a federally registered
 trademark of Gaussian, Inc.
  
 This software contains proprietary and confidential information,
 including trade secrets, belonging to Gaussian, Inc.
  
 This software is provided under written license and may be
 used, copied, transmitted, or stored only in accord with that
 written license.
  
 The following legend is applicable only to US Government
 contracts under FAR:
  
                    RESTRICTED RIGHTS LEGEND
  
 Use, reproduction and disclosure by the US Government is
 subject to restrictions as set forth in subparagraphs (a)
 and (c) of the Commercial Computer Software - Restricted
 Rights clause in FAR 52.227-19.
  
 Gaussian, Inc.
 340 Quinnipiac St., Bldg. 40, Wallingford CT 06492
  
  
 ---------------------------------------------------------------
 Warning -- This program may not be used in any manner that
 competes with the business of Gaussian, Inc. or will provide
 assistance to any competitor of Gaussian, Inc.  The licensee
 of this program is prohibited from giving any competitor of
 Gaussian, Inc. access to this program.  By using this program,
 the user acknowledges that Gaussian, Inc. is engaged in the
 business of creating and licensing software in the field of
 computational chemistry and represents and warrants to the
 licensee that it is not a competitor of Gaussian, Inc. and that
 it will not use this program in any manner prohibited above.
 ---------------------------------------------------------------
  

 Cite this work as:
 Gaussian 16, Revision B.01,
 M. J. Frisch, G. W. Trucks, H. B. Schlegel, G. E. Scuseria, 
 M. A. Robb, J. R. Cheeseman, G. Scalmani, V. Barone, 
 G. A. Petersson, H. Nakatsuji, X. Li, M. Caricato, A. V. Marenich, 
 J. Bloino, B. G. Janesko, R. Gomperts, B. Mennucci, H. P. Hratchian, 
 J. V. Ortiz, A. F. Izmaylov, J. L. Sonnenberg, D. Williams-Young, 
 F. Ding, F. Lipparini, F. Egidi, J. Goings, B. Peng, A. Petrone, 
 T. Henderson, D. Ranasinghe, V. G. Zakrzewski, J. Gao, N. Rega, 
 G. Zheng, W. Liang, M. Hada, M. Ehara, K. Toyota, R. Fukuda, 
 J. Hasegawa, M. Ishida, T. Nakajima, Y. Honda, O. Kitao, H. Nakai, 
 T. Vreven, K. Throssell, J. A. Montgomery, Jr., J. E. Peralta, 
 F. Ogliaro, M. J. Bearpark, J. J. Heyd, E. N. Brothers, K. N. Kudin, 
 V. N. Staroverov, T. A. Keith, R. Kobayashi, J. Normand, 
 K. Raghavachari, A. P. Rendell, J. C. Burant, S. S. Iyengar, 
 J. Tomasi, M. Cossi, J. M. Millam, M. Klene, C. Adamo, R. Cammi, 
 J. W. Ochterski, R. L. Martin, K. Morokuma, O. Farkas, 
 J. B. Foresman, and D. J. Fox, Gaussian, Inc., Wallingford CT, 2016.
 
 ******************************************
 Gaussian 16:  ES64L-G16RevB.01 20-Dec-2017
                23-Dec-2020 
 ******************************************
 %NProcShared=16
 Will use up to   16 processors via shared memory.
 %Mem=6GB
 ----------------------------------------------------------------------
 # B3LYP/6-31+G* IRC=(CALCALL, maxpoints=40, StepSize=15, maxcyc=100, R
 eport=Cartesians)
 ----------------------------------------------------------------------
 1/6=100,10=4,18=10,26=3,38=1,39=15,42=40,44=3,71=1,129=10,172=1/1,23;
 2/12=2,17=6,18=5,29=1,40=1/2;
 3/5=1,6=6,7=11,11=2,25=1,30=1,71=2,74=-5,140=1/1,2,3;
 4//1;
 5/5=2,38=5/2;
 8/6=4,10=90,11=11/1;
 11/6=1,8=1,9=11,15=111,16=1/1,2,10;
 10/6=1,13=1/2;
 6/7=2,8=2,9=2,10=2,18=1,28=1/1;
 7/10=1,25=1/1,2,3,16;
 1/6=100,10=4,18=10,26=3,39=15,42=40,44=3,71=1,129=10/23(2);
 2/29=1/2;
 99/5=20/99;
 2/29=1/2;
 3/5=1,6=6,7=11,11=2,25=1,30=1,71=2,74=-5,140=1/1,2,3;
 4/5=5,16=3,69=1/1;
 5/5=2,38=5/2;
 8/6=4,10=90,11=11/1;
 11/6=1,8=1,9=11,15=111,16=1/1,2,10;
 10/6=1,13=1/2;
 7/10=1,25=1/1,2,3,16;
 1/6=100,10=4,18=10,26=3,39=15,42=40,44=3,71=1,129=10/23(-8);
 2/29=1/2;
 6/7=2,8=2,9=2,10=2,18=1,19=2,28=1/1;
 99/5=20/99;
 ----------
 pp_2_0 IRC
 ----------
 Symbolic Z-matrix:
 Charge =  0 Multiplicity = 1
 C                    -0.42149  -0.97489  -0.11468 
 C                     0.39982  -0.1053    0.77472 
 C                     1.74021   0.26404   0.3723 
 O                    -1.77275  -0.64533  -0.11486 
 O                    -1.70423   1.17285  -0.09249 
 O                     2.22651   0.10188  -0.74965 
 H                    -1.657     1.26049  -1.06299 
 H                    -0.51087  -1.98778   0.34396 
 H                     0.00829  -1.0546   -1.12049 
 H                     2.33322   0.78772   1.15239 
 H                    -0.68021   0.99204   0.30261 
 H                     0.19918  -0.13613   1.84653 
 
 IRC-IRC-IRC-IRC-IRC-IRC-IRC-IRC-IRC-IRC-IRC-IRC-IRC-IRC-IRC-IRC-IRC-IRC
 ------------------------------------------------------------------------
 INPUT DATA FOR L123
 ------------------------------------------------------------------------
 GENERAL PARAMETERS:
 Follow reaction path in both directions.
 Maximum points per path      =  40
 Step size                    =   0.150 bohr
 Integration scheme           = HPC                                 
    Redo corrector integration= Yes                                 
    DWI Weight Power          =  2
    DWI will use Hessian update vectors when possible.
    Max correction cycles     = 100
 Initial Hessian              = CalcFC
 Hessian evaluation           = Analytic at all predictor steps
                              = Update at all corrector steps
 Hessian updating method      = Bofill                              
 ------------------------------------------------------------------------
 IRC-IRC-IRC-IRC-IRC-IRC-IRC-IRC-IRC-IRC-IRC-IRC-IRC-IRC-IRC-IRC-IRC-IRC
                          Input orientation:                          
 ---------------------------------------------------------------------
 Center     Atomic      Atomic             Coordinates (Angstroms)
 Number     Number       Type             X           Y           Z
 ---------------------------------------------------------------------
      1          6           0       -0.421491   -0.974893   -0.114684
      2          6           0        0.399817   -0.105304    0.774716
      3          6           0        1.740207    0.264040    0.372296
      4          8           0       -1.772753   -0.645326   -0.114860
      5          8           0       -1.704232    1.172853   -0.092490
      6          8           0        2.226509    0.101875   -0.749647
      7          1           0       -1.656998    1.260491   -1.062993
      8          1           0       -0.510866   -1.987781    0.343963
      9          1           0        0.008287   -1.054603   -1.120494
     10          1           0        2.333217    0.787717    1.152387
     11          1           0       -0.680209    0.992035    0.302613
     12          1           0        0.199184   -0.136129    1.846526
 ---------------------------------------------------------------------
                    Distance matrix (angstroms):
                    1          2          3          4          5
     1  C    0.000000
     2  C    1.490558   0.000000
     3  C    2.538709   1.447412   0.000000
     4  O    1.390871   2.408948   3.661305   0.000000
     5  O    2.501745   2.610125   3.592510   1.819607   0.000000
     6  O    2.928227   2.388181   1.233508   4.117689   4.126690
     7  H    2.724465   3.077833   3.820206   2.131782   0.975596
     8  H    1.115476   2.135090   3.184153   1.898700   3.406497
     9  H    1.096684   2.155524   2.639467   2.085884   2.991835
    10  H    3.507232   2.162905   1.111054   4.529737   4.242528
    11  H    2.027283   1.610432   2.528487   2.012185   1.112396
    12  H    2.221510   1.090862   2.169848   2.827517   3.015992
                    6          7          8          9         10
     6  O    0.000000
     7  H    4.064751   0.000000
     8  H    3.613290   3.720808   0.000000
     9  H    2.528928   2.852392   1.812450   0.000000
    10  H    2.024722   4.588381   4.055336   3.737035   0.000000
    11  H    3.216931   1.700313   2.984910   2.586114   3.137610
    12  H    3.302546   3.723071   2.488068   3.111791   2.426812
                   11         12
    11  H    0.000000
    12  H    2.104698   0.000000
 Symmetry turned off by external request.
 Stoichiometry    C3H6O3
 Framework group  C1[X(C3H6O3)]
 Deg. of freedom    30
 Full point group                 C1      NOp   1
 Rotational constants (GHZ):           6.7227034           2.0122370           1.8372943
 Standard basis: 6-31+G(d) (6D, 7F)
   126 basis functions,   216 primitive gaussians,   126 cartesian basis functions
    24 alpha electrons       24 beta electrons
       nuclear repulsion energy       236.2733889321 Hartrees.
 NAtoms=   12 NActive=   12 NUniq=   12 SFac= 1.00D+00 NAtFMM=   60 NAOKFM=F Big=F
 Integral buffers will be    131072 words long.
 Raffenetti 2 integral format.
 Two-electron integral symmetry is turned off.
 One-electron integrals computed using PRISM.
 NBasis=   126 RedAO= T EigKep=  9.33D-05  NBF=   126
 NBsUse=   126 1.00D-06 EigRej= -1.00D+00 NBFU=   126
 ExpMin= 4.38D-02 ExpMax= 5.48D+03 ExpMxC= 8.25D+02 IAcc=3 IRadAn=         5 AccDes= 0.00D+00
 Harris functional with IExCor=  402 and IRadAn=       5 diagonalized for initial guess.
 HarFok:  IExCor=  402 AccDes= 0.00D+00 IRadAn=         5 IDoV= 1 UseB2=F ITyADJ=14
 ICtDFT=  3500011 ScaDFX=  1.000000  1.000000  1.000000  1.000000
 FoFCou: FMM=F IPFlag=           0 FMFlag=      100000 FMFlg1=           0
         NFxFlg=           0 DoJE=T BraDBF=F KetDBF=T FulRan=T
         wScrn=  0.000000 ICntrl=       500 IOpCl=  0 I1Cent=   200000004 NGrid=           0
         NMat0=    1 NMatS0=      1 NMatT0=    0 NMatD0=    1 NMtDS0=    0 NMtDT0=    0
 Symmetry not used in FoFCou.
 Keep R1 ints in memory in canonical form, NReq=47237243.
 Requested convergence on RMS density matrix=1.00D-08 within 128 cycles.
 Requested convergence on MAX density matrix=1.00D-06.
 Requested convergence on             energy=1.00D-06.
 No special actions if energy rises.
 EnCoef did     2 forward-backward iterations
 EnCoef did     3 forward-backward iterations
 SCF Done:  E(RB3LYP) =  -343.404370853     A.U. after   18 cycles
            NFock= 18  Conv=0.74D-08     -V/T= 2.0092
 DoSCS=F DFT=T ScalE2(SS,OS)=  1.000000  1.000000
 Range of M.O.s used for correlation:     1   126
 NBasis=   126 NAE=    24 NBE=    24 NFC=     0 NFV=     0
 NROrb=    126 NOA=    24 NOB=    24 NVA=   102 NVB=   102

 **** Warning!!: The largest alpha MO coefficient is  0.31416579D+02


 **** Warning!!: The smallest alpha delta epsilon is  0.69799911D-01

 Symmetrizing basis deriv contribution to polar:
 IMax=3 JMax=2 DiffMx= 0.00D+00
 G2DrvN: will do    13 centers at a time, making    1 passes.
 Calling FoFCou, ICntrl=  3107 FMM=F I1Cent=   0 AccDes= 0.00D+00.
 End of G2Drv F.D. properties file   721 does not exist.
 End of G2Drv F.D. properties file   722 does not exist.
 End of G2Drv F.D. properties file   788 does not exist.
          IDoAtm=111111111111
          Differentiating once with respect to nuclear coordinates.
 Keep R1 ints in memory in canonical form, NReq=47193258.
          There are    39 degrees of freedom in the 1st order CPHF.  IDoFFX=6 NUNeed=     0.
     33 vectors produced by pass  0 Test12= 6.28D-15 2.56D-09 XBig12= 3.22D-01 3.21D-01.
 AX will form    33 AO Fock derivatives at one time.
     33 vectors produced by pass  1 Test12= 6.28D-15 2.56D-09 XBig12= 2.67D-01 1.26D-01.
     33 vectors produced by pass  2 Test12= 6.28D-15 2.56D-09 XBig12= 3.42D-03 1.15D-02.
     33 vectors produced by pass  3 Test12= 6.28D-15 2.56D-09 XBig12= 1.82D-05 7.86D-04.
     33 vectors produced by pass  4 Test12= 6.28D-15 2.56D-09 XBig12= 3.69D-08 2.50D-05.
     32 vectors produced by pass  5 Test12= 6.28D-15 2.56D-09 XBig12= 4.22D-11 8.05D-07.
      6 vectors produced by pass  6 Test12= 6.28D-15 2.56D-09 XBig12= 3.34D-14 2.23D-08.
 InvSVY:  IOpt=1 It=  1 EMax= 1.44D-15
 Solved reduced A of dimension   203 with    33 vectors.
 End of Minotr F.D. properties file   721 does not exist.
 End of Minotr F.D. properties file   722 does not exist.
 End of Minotr F.D. properties file   788 does not exist.

 **********************************************************************

            Population analysis using the SCF Density.

 **********************************************************************

 Alpha  occ. eigenvalues --  -19.26595 -19.24425 -19.14202 -10.27386 -10.27349
 Alpha  occ. eigenvalues --  -10.20781  -1.10899  -1.03154  -1.01839  -0.78388
 Alpha  occ. eigenvalues --   -0.66776  -0.60841  -0.55008  -0.52956  -0.49767
 Alpha  occ. eigenvalues --   -0.47278  -0.45748  -0.43028  -0.40837  -0.39363
 Alpha  occ. eigenvalues --   -0.38466  -0.31864  -0.25886  -0.24491
 Alpha virt. eigenvalues --   -0.17511  -0.02034   0.00662   0.01198   0.02080
 Alpha virt. eigenvalues --    0.03734   0.05845   0.06536   0.06893   0.08132
 Alpha virt. eigenvalues --    0.09003   0.11212   0.12421   0.13091   0.14807
 Alpha virt. eigenvalues --    0.16627   0.16921   0.18614   0.19213   0.21401
 Alpha virt. eigenvalues --    0.22066   0.23248   0.24234   0.24552   0.25639
 Alpha virt. eigenvalues --    0.25980   0.27437   0.27813   0.30737   0.31324
 Alpha virt. eigenvalues --    0.32752   0.34992   0.37470   0.38142   0.39217
 Alpha virt. eigenvalues --    0.46936   0.61749   0.63932   0.66884   0.67826
 Alpha virt. eigenvalues --    0.72022   0.74259   0.80374   0.85578   0.87194
 Alpha virt. eigenvalues --    0.91708   0.94181   0.97606   1.00490   1.03598
 Alpha virt. eigenvalues --    1.05751   1.09318   1.11518   1.13456   1.18088
 Alpha virt. eigenvalues --    1.19235   1.23253   1.24836   1.26511   1.28506
 Alpha virt. eigenvalues --    1.29678   1.32715   1.35409   1.39949   1.45011
 Alpha virt. eigenvalues --    1.52937   1.54010   1.58531   1.60651   1.63601
 Alpha virt. eigenvalues --    1.66675   1.75262   1.76150   1.77673   1.82034
 Alpha virt. eigenvalues --    1.85119   1.86518   1.91355   2.02422   2.03751
 Alpha virt. eigenvalues --    2.08195   2.13098   2.21203   2.26464   2.28772
 Alpha virt. eigenvalues --    2.33367   2.39461   2.51649   2.52620   2.56459
 Alpha virt. eigenvalues --    2.60873   2.70992   2.77903   2.88944   2.96126
 Alpha virt. eigenvalues --    3.10155   3.93994   4.14702   4.19791   4.25199
 Alpha virt. eigenvalues --    4.34595   4.54696
          Condensed to atoms (all electrons):
               1          2          3          4          5          6
     1  C    5.667119  -0.390671   0.123106   0.137872  -0.048128   0.055476
     2  C   -0.390671   7.225595  -0.268958  -0.130685  -0.110360  -0.212187
     3  C    0.123106  -0.268958   5.122949   0.027962   0.007364   0.436495
     4  O    0.137872  -0.130685   0.027962   8.284996   0.004238  -0.001588
     5  O   -0.048128  -0.110360   0.007364   0.004238   8.595505   0.002140
     6  O    0.055476  -0.212187   0.436495  -0.001588   0.002140   8.235167
     7  H    0.031658  -0.022722   0.004062  -0.027386   0.207190  -0.000190
     8  H    0.369307  -0.018514  -0.010883  -0.044617   0.009109   0.001156
     9  H    0.435763  -0.132142   0.026788  -0.049832   0.001753   0.003826
    10  H    0.035201  -0.201668   0.440358  -0.000649  -0.000124  -0.064525
    11  H   -0.043970   0.319004  -0.034736  -0.088821   0.032622  -0.003129
    12  H    0.001190   0.287764   0.005037   0.007760   0.002318   0.004481
               7          8          9         10         11         12
     1  C    0.031658   0.369307   0.435763   0.035201  -0.043970   0.001190
     2  C   -0.022722  -0.018514  -0.132142  -0.201668   0.319004   0.287764
     3  C    0.004062  -0.010883   0.026788   0.440358  -0.034736   0.005037
     4  O   -0.027386  -0.044617  -0.049832  -0.000649  -0.088821   0.007760
     5  O    0.207190   0.009109   0.001753  -0.000124   0.032622   0.002318
     6  O   -0.000190   0.001156   0.003826  -0.064525  -0.003129   0.004481
     7  H    0.275811  -0.000134   0.000707   0.000004  -0.006713   0.000165
     8  H   -0.000134   0.469811  -0.032649  -0.000022   0.001548  -0.003623
     9  H    0.000707  -0.032649   0.507156   0.000170  -0.002118   0.003588
    10  H    0.000004  -0.000022   0.000170   0.637801   0.000123   0.001441
    11  H   -0.006713   0.001548  -0.002118   0.000123   0.356373  -0.006726
    12  H    0.000165  -0.003623   0.003588   0.001441  -0.006726   0.481171
 Mulliken charges:
               1
     1  C   -0.373923
     2  C   -0.344454
     3  C    0.120455
     4  O   -0.119248
     5  O   -0.703627
     6  O   -0.457123
     7  H    0.537548
     8  H    0.259513
     9  H    0.236991
    10  H    0.151891
    11  H    0.476543
    12  H    0.215434
 Sum of Mulliken charges =  -0.00000
 Mulliken charges with hydrogens summed into heavy atoms:
               1
     1  C    0.122581
     2  C   -0.129020
     3  C    0.272346
     4  O   -0.119248
     5  O    0.310464
     6  O   -0.457123
 APT charges:
               1
     1  C   -0.817852
     2  C   -0.532877
     3  C   -0.384544
     4  O   -0.127303
     5  O   -0.786727
     6  O   -0.339523
     7  H    0.636963
     8  H    0.541317
     9  H    0.401158
    10  H    0.490254
    11  H    0.449085
    12  H    0.470050
 Sum of APT charges =  -0.00000
 APT charges with hydrogens summed into heavy atoms:
               1
     1  C    0.124623
     2  C   -0.062827
     3  C    0.105710
     4  O   -0.127303
     5  O    0.299321
     6  O   -0.339523
 Electronic spatial extent (au):  <R**2>=            666.7833
 Charge=             -0.0000 electrons
 Dipole moment (field-independent basis, Debye):
    X=             -1.6215    Y=              0.2052    Z=              0.7267  Tot=              1.7887
 Quadrupole moment (field-independent basis, Debye-Ang):
   XX=            -48.4171   YY=            -32.8612   ZZ=            -34.6650
   XY=             -1.0666   XZ=              7.5819   YZ=             -2.1817
 Traceless Quadrupole moment (field-independent basis, Debye-Ang):
   XX=             -9.7693   YY=              5.7866   ZZ=              3.9828
   XY=             -1.0666   XZ=              7.5819   YZ=             -2.1817
 Octapole moment (field-independent basis, Debye-Ang**2):
  XXX=            -14.1567  YYY=             -1.9774  ZZZ=             -4.3577  XYY=             -3.7906
  XXY=              4.4053  XXZ=              5.7434  XZZ=             -9.3396  YZZ=              3.9957
  YYZ=             -3.8233  XYZ=              6.1613
 Hexadecapole moment (field-independent basis, Debye-Ang**3):
 XXXX=           -623.2473 YYYY=           -147.9398 ZZZZ=           -105.0830 XXXY=             -9.6350
 XXXZ=             35.3894 YYYX=             -1.1690 YYYZ=             -8.7288 ZZZX=              5.6811
 ZZZY=             -4.8850 XXYY=           -120.6521 XXZZ=           -111.9969 YYZZ=            -41.7279
 XXYZ=             -6.0271 YYXZ=              4.2282 ZZXY=             -6.9645
 N-N= 2.362733889321D+02 E-N=-1.276880229031D+03  KE= 3.402717022179D+02
  Exact polarizability:   0.000   0.000   0.000   0.000   0.000   0.000
 Approx polarizability: 231.519  -7.980 100.843  19.110   0.846  80.264
 Calling FoFJK, ICntrl=    100127 FMM=F ISym2X=0 I1Cent= 0 IOpClX= 0 NMat=1 NMatS=1 NMatT=0.
 -------------------------------------------------------------------
 Center     Atomic                   Forces (Hartrees/Bohr)
 Number     Number              X              Y              Z
 -------------------------------------------------------------------
      1        6           0.000008542   -0.000017121   -0.000002923
      2        6          -0.000014043    0.000011037   -0.000005560
      3        6          -0.000007097    0.000009345    0.000008001
      4        8           0.000000918    0.000024007    0.000003417
      5        8           0.000000270   -0.000012591   -0.000001380
      6        8          -0.000003793   -0.000002381    0.000000443
      7        1          -0.000001546    0.000001575   -0.000002365
      8        1           0.000001551    0.000001196   -0.000000494
      9        1          -0.000001302   -0.000000031   -0.000001266
     10        1           0.000001653   -0.000002827   -0.000003971
     11        1           0.000010397   -0.000006087    0.000004358
     12        1           0.000004450   -0.000006122    0.000001738
 -------------------------------------------------------------------
 Cartesian Forces:  Max     0.000024007 RMS     0.000007387
 IRC-IRC-IRC-IRC-IRC-IRC-IRC-IRC-IRC-IRC-IRC-IRC-IRC-IRC-IRC-IRC-IRC-IRC
          ******** Start new reaction path calculation ********
 Supplied step size of   0.1500 bohr.
    Integration on MW PES will use step size of   0.1842 sqrt(amu)*bohr.
 Point Number:   0          Path Number:   1
 Calculating another point on the path.
 IRC-IRC-IRC-IRC-IRC-IRC-IRC-IRC-IRC-IRC-IRC-IRC-IRC-IRC-IRC-IRC-IRC-IRC
                          Input orientation:                          
 ---------------------------------------------------------------------
 Center     Atomic      Atomic             Coordinates (Angstroms)
 Number     Number       Type             X           Y           Z
 ---------------------------------------------------------------------
      1          6           0       -0.426323   -0.972289   -0.099241
      2          6           0        0.401798   -0.114000    0.792103
      3          6           0        1.736419    0.262058    0.389528
      4          8           0       -1.775788   -0.655498   -0.098294
      5          8           0       -1.707348    1.178949   -0.076483
      6          8           0        2.223111    0.100437   -0.734096
      7          1           0       -1.658522    1.262771   -1.045912
      8          1           0       -0.510366   -1.984929    0.365702
      9          1           0        0.006243   -1.058059   -1.103903
     10          1           0        2.328751    0.788047    1.168171
     11          1           0       -0.741568    1.031540    0.290677
     12          1           0        0.189749   -0.126949    1.861908
 ---------------------------------------------------------------------
                    Distance matrix (angstroms):
                    1          2          3          4          5
     1  C    0.000000
     2  C    1.488939   0.000000
     3  C    2.537708   1.443849   0.000000
     4  O    1.386151   2.414106   3.662715   0.000000
     5  O    2.503871   2.621956   3.594077   1.835853   0.000000
     6  O    2.928017   2.385885   1.235119   4.119086   4.128456
     7  H    2.722131   3.085242   3.819364   2.142775   0.974270
     8  H    1.117440   2.124673   3.177666   1.893138   3.411512
     9  H    1.097186   2.154658   2.639423   2.085411   2.999365
    10  H    3.506501   2.160616   1.110768   4.531556   4.241705
    11  H    2.065610   1.694395   2.596593   2.016682   1.043680
    12  H    2.222667   1.090695   2.170581   2.825791   3.010267
                    6          7          8          9         10
     6  O    0.000000
     7  H    4.063905   0.000000
     8  H    3.609736   3.722696   0.000000
     9  H    2.528512   2.856756   1.812653   0.000000
    10  H    2.025484   4.585398   4.048942   3.736907   0.000000
    11  H    3.272068   1.637298   3.026246   2.621163   3.202521
    12  H    3.305375   3.715218   2.486138   3.113949   2.427719
                   11         12
    11  H    0.000000
    12  H    2.162918   0.000000
 Symmetry turned off by external request.
 Stoichiometry    C3H6O3
 Framework group  C1[X(C3H6O3)]
 Deg. of freedom    30
 Full point group                 C1      NOp   1
 Rotational constants (GHZ):           6.6786046           2.0113783           1.8336590
 Standard basis: 6-31+G(d) (6D, 7F)
   126 basis functions,   216 primitive gaussians,   126 cartesian basis functions
    24 alpha electrons       24 beta electrons
       nuclear repulsion energy       236.1824327941 Hartrees.
 NAtoms=   12 NActive=   12 NUniq=   12 SFac= 1.00D+00 NAtFMM=   60 NAOKFM=F Big=F
 Integral buffers will be    131072 words long.
 Raffenetti 2 integral format.
 Two-electron integral symmetry is turned off.
 One-electron integrals computed using PRISM.
 NBasis=   126 RedAO= T EigKep=  9.33D-05  NBF=   126
 NBsUse=   126 1.00D-06 EigRej= -1.00D+00 NBFU=   126
 Initial guess from the checkpoint file:  "/scratch/bell/zhao922/YARP/paper-example/KHP-network/pp_0/IRC-folder/Gau-60945.chk"
 B after Tr=    -0.007660   -0.001648    0.029921
         Rot=    1.000000    0.000394    0.000085   -0.000058 Ang=   0.05 deg.
 ExpMin= 4.38D-02 ExpMax= 5.48D+03 ExpMxC= 8.25D+02 IAcc=3 IRadAn=         5 AccDes= 0.00D+00
 Harris functional with IExCor=  402 and IRadAn=       5 diagonalized for initial guess.
 HarFok:  IExCor=  402 AccDes= 0.00D+00 IRadAn=         5 IDoV= 1 UseB2=F ITyADJ=14
 ICtDFT=  3500011 ScaDFX=  1.000000  1.000000  1.000000  1.000000
 FoFCou: FMM=F IPFlag=           0 FMFlag=      100000 FMFlg1=           0
         NFxFlg=           0 DoJE=T BraDBF=F KetDBF=T FulRan=T
         wScrn=  0.000000 ICntrl=       500 IOpCl=  0 I1Cent=   200000004 NGrid=           0
         NMat0=    1 NMatS0=      1 NMatT0=    0 NMatD0=    1 NMtDS0=    0 NMtDT0=    0
 Symmetry not used in FoFCou.
 Keep R1 ints in memory in canonical form, NReq=47237243.
 Requested convergence on RMS density matrix=1.00D-08 within 128 cycles.
 Requested convergence on MAX density matrix=1.00D-06.
 Requested convergence on             energy=1.00D-06.
 No special actions if energy rises.
 EnCoef did     2 forward-backward iterations
 SCF Done:  E(RB3LYP) =  -343.404968220     A.U. after   15 cycles
            NFock= 15  Conv=0.48D-08     -V/T= 2.0090
 DoSCS=F DFT=T ScalE2(SS,OS)=  1.000000  1.000000
 Range of M.O.s used for correlation:     1   126
 NBasis=   126 NAE=    24 NBE=    24 NFC=     0 NFV=     0
 NROrb=    126 NOA=    24 NOB=    24 NVA=   102 NVB=   102

 **** Warning!!: The largest alpha MO coefficient is  0.30666827D+02


 **** Warning!!: The smallest alpha delta epsilon is  0.66179897D-01

 Symmetrizing basis deriv contribution to polar:
 IMax=3 JMax=2 DiffMx= 0.00D+00
 G2DrvN: will do    13 centers at a time, making    1 passes.
 Calling FoFCou, ICntrl=  3107 FMM=F I1Cent=   0 AccDes= 0.00D+00.
 End of G2Drv F.D. properties file   721 does not exist.
 End of G2Drv F.D. properties file   722 does not exist.
 End of G2Drv F.D. properties file   788 does not exist.
          IDoAtm=111111111111
          Differentiating once with respect to nuclear coordinates.
 Keep R1 ints in memory in canonical form, NReq=47193258.
          There are    39 degrees of freedom in the 1st order CPHF.  IDoFFX=6 NUNeed=     0.
     33 vectors produced by pass  0 Test12= 6.28D-15 2.56D-09 XBig12= 3.74D-01 4.04D-01.
 AX will form    33 AO Fock derivatives at one time.
     33 vectors produced by pass  1 Test12= 6.28D-15 2.56D-09 XBig12= 3.89D-01 1.45D-01.
     33 vectors produced by pass  2 Test12= 6.28D-15 2.56D-09 XBig12= 3.99D-03 1.15D-02.
     33 vectors produced by pass  3 Test12= 6.28D-15 2.56D-09 XBig12= 2.09D-05 6.65D-04.
     33 vectors produced by pass  4 Test12= 6.28D-15 2.56D-09 XBig12= 4.36D-08 2.54D-05.
     31 vectors produced by pass  5 Test12= 6.28D-15 2.56D-09 XBig12= 5.48D-11 8.58D-07.
      6 vectors produced by pass  6 Test12= 6.28D-15 2.56D-09 XBig12= 4.44D-14 2.82D-08.
 InvSVY:  IOpt=1 It=  1 EMax= 2.22D-15
 Solved reduced A of dimension   202 with    33 vectors.
 End of Minotr F.D. properties file   721 does not exist.
 End of Minotr F.D. properties file   722 does not exist.
 End of Minotr F.D. properties file   788 does not exist.
 Calling FoFJK, ICntrl=    100127 FMM=F ISym2X=0 I1Cent= 0 IOpClX= 0 NMat=1 NMatS=1 NMatT=0.
 -------------------------------------------------------------------
 Center     Atomic                   Forces (Hartrees/Bohr)
 Number     Number              X              Y              Z
 -------------------------------------------------------------------
      1        6          -0.001644916    0.005165870   -0.000718519
      2        6           0.006173223   -0.009140268    0.001655686
      3        6          -0.000002128   -0.000565220    0.001319578
      4        8           0.000500005   -0.014754823    0.000997361
      5        8          -0.007241863    0.013779753   -0.003628300
      6        8          -0.000024487    0.000095980   -0.000664711
      7        1          -0.000123096    0.000519874    0.000099842
      8        1           0.000533784    0.000486555    0.000517347
      9        1           0.000148045   -0.000215030    0.000056479
     10        1          -0.000104681    0.000190657   -0.000051609
     11        1           0.002417821    0.003285310    0.000645312
     12        1          -0.000631709    0.001151342   -0.000228466
 -------------------------------------------------------------------
 Cartesian Forces:  Max     0.014754823 RMS     0.004253410
 IRC-IRC-IRC-IRC-IRC-IRC-IRC-IRC-IRC-IRC-IRC-IRC-IRC-IRC-IRC-IRC-IRC-IRC
 Pt  1 Step number   1 out of a maximum of 100
 Modified Bulirsch-Stoer Extrapolation Cycles:
    EPS =    0.000010000000000
      PEZero:  N= 2 I= 1 D=  4.80D-04 Err=  7.77D-04
      PEZero:  N= 3 I= 2 D=  4.80D-04 Err=  5.18D-04
      PEZero:  N= 3 I= 1 D=  9.59D-04 Err=  1.18D-06
 Maximum DWI energy   std dev =  0.000063910 at pt     1
 Maximum DWI gradient std dev =  0.138690460 at pt    24
 CORRECTOR INTEGRATION CONVERGENCE:
   Recorrection delta-x convergence threshold:    0.010000
   Delta-x Convergence NOT Met
 IRC-IRC-IRC-IRC-IRC-IRC-IRC-IRC-IRC-IRC-IRC-IRC-IRC-IRC-IRC-IRC-IRC-IRC
                          Input orientation:                          
 ---------------------------------------------------------------------
 Center     Atomic      Atomic             Coordinates (Angstroms)
 Number     Number       Type             X           Y           Z
 ---------------------------------------------------------------------
      1          6           0       -0.426460   -0.971869   -0.099322
      2          6           0        0.402157   -0.114796    0.792239
      3          6           0        1.736584    0.261991    0.389576
      4          8           0       -1.775715   -0.656572   -0.098157
      5          8           0       -1.708314    1.180131   -0.076951
      6          8           0        2.223077    0.100450   -0.734083
      7          1           0       -1.659282    1.263645   -1.046405
      8          1           0       -0.509378   -1.984502    0.365981
      9          1           0        0.006339   -1.058140   -1.103848
     10          1           0        2.328665    0.788341    1.168093
     11          1           0       -0.731023    1.032293    0.294986
     12          1           0        0.189067   -0.125868    1.861661
 ---------------------------------------------------------------------
                    Distance matrix (angstroms):
                    1          2          3          4          5
     1  C    0.000000
     2  C    1.488644   0.000000
     3  C    2.537753   1.443884   0.000000
     4  O    1.385606   2.414426   3.663044   0.000000
     5  O    2.504946   2.624199   3.595547   1.838062   0.000000
     6  O    2.927940   2.385737   1.235063   4.119202   4.129573
     7  H    2.722928   3.087109   3.820636   2.144752   0.974278
     8  H    1.117501   2.123298   3.176733   1.892732   3.412996
     9  H    1.097192   2.154464   2.639471   2.085279   3.000735
    10  H    3.506479   2.160638   1.110717   4.531788   4.242740
    11  H    2.065163   1.687356   2.586773   2.024403   1.056074
    12  H    2.222622   1.090502   2.170778   2.825404   3.010633
                    6          7          8          9         10
     6  O    0.000000
     7  H    4.064883   0.000000
     8  H    3.608805   3.723919   0.000000
     9  H    2.528434   2.858020   1.812321   0.000000
    10  H    2.025492   4.586245   4.048028   3.736897   0.000000
    11  H    3.264049   1.647580   3.025759   2.621135   3.191163
    12  H    3.305496   3.715372   2.485841   3.113963   2.427899
                   11         12
    11  H    0.000000
    12  H    2.154616   0.000000
 Symmetry turned off by external request.
 Stoichiometry    C3H6O3
 Framework group  C1[X(C3H6O3)]
 Deg. of freedom    30
 Full point group                 C1      NOp   1
 Rotational constants (GHZ):           6.6725624           2.0109843           1.8329661
 Standard basis: 6-31+G(d) (6D, 7F)
   126 basis functions,   216 primitive gaussians,   126 cartesian basis functions
    24 alpha electrons       24 beta electrons
       nuclear repulsion energy       236.1090819712 Hartrees.
 NAtoms=   12 NActive=   12 NUniq=   12 SFac= 1.00D+00 NAtFMM=   60 NAOKFM=F Big=F
 Integral buffers will be    131072 words long.
 Raffenetti 2 integral format.
 Two-electron integral symmetry is turned off.
 One-electron integrals computed using PRISM.
 NBasis=   126 RedAO= T EigKep=  9.32D-05  NBF=   126
 NBsUse=   126 1.00D-06 EigRej= -1.00D+00 NBFU=   126
 Initial guess from the checkpoint file:  "/scratch/bell/zhao922/YARP/paper-example/KHP-network/pp_0/IRC-folder/Gau-60945.chk"
 B after Tr=     0.000197    0.000066    0.000075
         Rot=    1.000000   -0.000009   -0.000010    0.000017 Ang=  -0.00 deg.
 ExpMin= 4.38D-02 ExpMax= 5.48D+03 ExpMxC= 8.25D+02 IAcc=3 IRadAn=         5 AccDes= 0.00D+00
 Harris functional with IExCor=  402 and IRadAn=       5 diagonalized for initial guess.
 HarFok:  IExCor=  402 AccDes= 0.00D+00 IRadAn=         5 IDoV= 1 UseB2=F ITyADJ=14
 ICtDFT=  3500011 ScaDFX=  1.000000  1.000000  1.000000  1.000000
 FoFCou: FMM=F IPFlag=           0 FMFlag=      100000 FMFlg1=           0
         NFxFlg=           0 DoJE=T BraDBF=F KetDBF=T FulRan=T
         wScrn=  0.000000 ICntrl=       500 IOpCl=  0 I1Cent=   200000004 NGrid=           0
         NMat0=    1 NMatS0=      1 NMatT0=    0 NMatD0=    1 NMtDS0=    0 NMtDT0=    0
 Symmetry not used in FoFCou.
 Keep R1 ints in memory in canonical form, NReq=47237243.
 Requested convergence on RMS density matrix=1.00D-08 within 128 cycles.
 Requested convergence on MAX density matrix=1.00D-06.
 Requested convergence on             energy=1.00D-06.
 No special actions if energy rises.
 EnCoef did    10 forward-backward iterations
 SCF Done:  E(RB3LYP) =  -343.405073842     A.U. after   13 cycles
            NFock= 13  Conv=0.56D-08     -V/T= 2.0090
 DoSCS=F DFT=T ScalE2(SS,OS)=  1.000000  1.000000
 Range of M.O.s used for correlation:     1   126
 NBasis=   126 NAE=    24 NBE=    24 NFC=     0 NFV=     0
 NROrb=    126 NOA=    24 NOB=    24 NVA=   102 NVB=   102

 **** Warning!!: The largest alpha MO coefficient is  0.30466624D+02


 **** Warning!!: The smallest alpha delta epsilon is  0.66572376D-01

 Symmetrizing basis deriv contribution to polar:
 IMax=3 JMax=2 DiffMx= 0.00D+00
 Calling FoFJK, ICntrl=      2127 FMM=F ISym2X=0 I1Cent= 0 IOpClX= 0 NMat=1 NMatS=1 NMatT=0.
 -------------------------------------------------------------------
 Center     Atomic                   Forces (Hartrees/Bohr)
 Number     Number              X              Y              Z
 -------------------------------------------------------------------
      1        6          -0.001430761    0.004243884   -0.000720048
      2        6           0.005078888   -0.007592476    0.001409757
      3        6           0.000275467   -0.000611582    0.000992784
      4        8           0.000826301   -0.012838710    0.001077127
      5        8          -0.003006652    0.012212376   -0.001651208
      6        8          -0.000055758    0.000109199   -0.000447217
      7        1          -0.000045666    0.000421290   -0.000046905
      8        1           0.000475962    0.000365290    0.000426601
      9        1           0.000109942   -0.000128797    0.000043445
     10        1          -0.000088432    0.000193081   -0.000032221
     11        1          -0.001603700    0.002713552   -0.000967840
     12        1          -0.000535591    0.000912893   -0.000084275
 -------------------------------------------------------------------
 Cartesian Forces:  Max     0.012838710 RMS     0.003527820
 IRC-IRC-IRC-IRC-IRC-IRC-IRC-IRC-IRC-IRC-IRC-IRC-IRC-IRC-IRC-IRC-IRC-IRC
 Error in corrector energy =          -0.0000033641
 Magnitude of corrector gradient =     0.0219000365
 Magnitude of analytic gradient =      0.0211669222
 Magnitude of difference =             0.0007421045
 Angle between gradients (degrees)=    0.3065
 Pt  1 Step number   2 out of a maximum of 100
 Modified Bulirsch-Stoer Extrapolation Cycles:
    EPS =    0.000010000000000
      PEZero:  N= 2 I= 1 D=  4.80D-04 Err=  7.15D-04
      PEZero:  N= 3 I= 2 D=  4.80D-04 Err=  4.76D-04
      PEZero:  N= 3 I= 1 D=  9.59D-04 Err=  2.06D-06
 Maximum DWI energy   std dev =  0.000028780 at pt    25
 Maximum DWI gradient std dev =  0.423758428 at pt     1
 CORRECTOR INTEGRATION CONVERGENCE:
   Recorrection delta-x convergence threshold:    0.010000
   Delta-x Convergence Met
 Point Number:   1          Path Number:   1
   CHANGE IN THE REACTION COORDINATE =    0.18031
   NET REACTION COORDINATE UP TO THIS POINT =    0.18031
  # OF POINTS ALONG THE PATH =   1
  # OF STEPS =   2

 Calculating another point on the path.
 IRC-IRC-IRC-IRC-IRC-IRC-IRC-IRC-IRC-IRC-IRC-IRC-IRC-IRC-IRC-IRC-IRC-IRC
                          Input orientation:                          
 ---------------------------------------------------------------------
 Center     Atomic      Atomic             Coordinates (Angstroms)
 Number     Number       Type             X           Y           Z
 ---------------------------------------------------------------------
      1          6           0       -0.428280   -0.966669   -0.100449
      2          6           0        0.408024   -0.124169    0.794043
      3          6           0        1.737449    0.261059    0.390751
      4          8           0       -1.774623   -0.669465   -0.096776
      5          8           0       -1.711601    1.192940   -0.078766
      6          8           0        2.222994    0.100557   -0.734385
      7          1           0       -1.661493    1.270063   -1.047816
      8          1           0       -0.500923   -1.979471    0.371687
      9          1           0        0.007915   -1.059292   -1.103509
     10          1           0        2.327504    0.791545    1.167505
     11          1           0       -0.752453    1.066957    0.281463
     12          1           0        0.181026   -0.112977    1.860584
 ---------------------------------------------------------------------
                    Distance matrix (angstroms):
                    1          2          3          4          5
     1  C    0.000000
     2  C    1.486381   0.000000
     3  C    2.537514   1.441671   0.000000
     4  O    1.378762   2.419681   3.665817   0.000000
     5  O    2.512229   2.643743   3.603442   1.863558   0.000000
     6  O    2.927474   2.383424   1.235899   4.120731   4.135719
     7  H    2.724205   3.101488   3.826274   2.163110   0.973404
     8  H    1.119802   2.108724   3.167120   1.886236   3.425323
     9  H    1.097714   2.152962   2.639589   2.083968   3.013201
    10  H    3.506191   2.159262   1.110373   4.534359   4.246019
    11  H    2.094417   1.740180   2.619357   2.050136   1.032280
    12  H    2.223892   1.090488   2.173193   2.822322   3.008078
                    6          7          8          9         10
     6  O    0.000000
     7  H    4.068811   0.000000
     8  H    3.601338   3.731137   0.000000
     9  H    2.527465   2.866343   1.811588   0.000000
    10  H    2.026221   4.587889   4.038794   3.736790   0.000000
    11  H    3.289250   1.623142   3.058125   2.649008   3.216685
    12  H    3.308942   3.710319   2.483077   3.116301   2.430203
                   11         12
    11  H    0.000000
    12  H    2.181112   0.000000
 Symmetry turned off by external request.
 Stoichiometry    C3H6O3
 Framework group  C1[X(C3H6O3)]
 Deg. of freedom    30
 Full point group                 C1      NOp   1
 Rotational constants (GHZ):           6.6040164           2.0086463           1.8264813
 Standard basis: 6-31+G(d) (6D, 7F)
   126 basis functions,   216 primitive gaussians,   126 cartesian basis functions
    24 alpha electrons       24 beta electrons
       nuclear repulsion energy       235.7724709618 Hartrees.
 NAtoms=   12 NActive=   12 NUniq=   12 SFac= 1.00D+00 NAtFMM=   60 NAOKFM=F Big=F
 Integral buffers will be    131072 words long.
 Raffenetti 2 integral format.
 Two-electron integral symmetry is turned off.
 One-electron integrals computed using PRISM.
 NBasis=   126 RedAO= T EigKep=  9.33D-05  NBF=   126
 NBsUse=   126 1.00D-06 EigRej= -1.00D+00 NBFU=   126
 Initial guess from the checkpoint file:  "/scratch/bell/zhao922/YARP/paper-example/KHP-network/pp_0/IRC-folder/Gau-60945.chk"
 B after Tr=    -0.000452    0.001185   -0.000210
         Rot=    1.000000    0.000336    0.000049   -0.000027 Ang=   0.04 deg.
 ExpMin= 4.38D-02 ExpMax= 5.48D+03 ExpMxC= 8.25D+02 IAcc=3 IRadAn=         5 AccDes= 0.00D+00
 Harris functional with IExCor=  402 and IRadAn=       5 diagonalized for initial guess.
 HarFok:  IExCor=  402 AccDes= 0.00D+00 IRadAn=         5 IDoV= 1 UseB2=F ITyADJ=14
 ICtDFT=  3500011 ScaDFX=  1.000000  1.000000  1.000000  1.000000
 FoFCou: FMM=F IPFlag=           0 FMFlag=      100000 FMFlg1=           0
         NFxFlg=           0 DoJE=T BraDBF=F KetDBF=T FulRan=T
         wScrn=  0.000000 ICntrl=       500 IOpCl=  0 I1Cent=   200000004 NGrid=           0
         NMat0=    1 NMatS0=      1 NMatT0=    0 NMatD0=    1 NMtDS0=    0 NMtDT0=    0
 Symmetry not used in FoFCou.
 Keep R1 ints in memory in canonical form, NReq=47237243.
 Requested convergence on RMS density matrix=1.00D-08 within 128 cycles.
 Requested convergence on MAX density matrix=1.00D-06.
 Requested convergence on             energy=1.00D-06.
 No special actions if energy rises.
 EnCoef did    12 forward-backward iterations
 EnCoef did     4 forward-backward iterations
 SCF Done:  E(RB3LYP) =  -343.406548035     A.U. after   14 cycles
            NFock= 14  Conv=0.87D-08     -V/T= 2.0090
 DoSCS=F DFT=T ScalE2(SS,OS)=  1.000000  1.000000
 Range of M.O.s used for correlation:     1   126
 NBasis=   126 NAE=    24 NBE=    24 NFC=     0 NFV=     0
 NROrb=    126 NOA=    24 NOB=    24 NVA=   102 NVB=   102

 **** Warning!!: The largest alpha MO coefficient is  0.30069431D+02


 **** Warning!!: The smallest alpha delta epsilon is  0.65539799D-01

 Symmetrizing basis deriv contribution to polar:
 IMax=3 JMax=2 DiffMx= 0.00D+00
 G2DrvN: will do    13 centers at a time, making    1 passes.
 Calling FoFCou, ICntrl=  3107 FMM=F I1Cent=   0 AccDes= 0.00D+00.
 End of G2Drv F.D. properties file   721 does not exist.
 End of G2Drv F.D. properties file   722 does not exist.
 End of G2Drv F.D. properties file   788 does not exist.
          IDoAtm=111111111111
          Differentiating once with respect to nuclear coordinates.
 Keep R1 ints in memory in canonical form, NReq=47193258.
          There are    39 degrees of freedom in the 1st order CPHF.  IDoFFX=6 NUNeed=     0.
     33 vectors produced by pass  0 Test12= 6.28D-15 2.56D-09 XBig12= 4.01D-01 4.36D-01.
 AX will form    33 AO Fock derivatives at one time.
     33 vectors produced by pass  1 Test12= 6.28D-15 2.56D-09 XBig12= 4.69D-01 1.76D-01.
     33 vectors produced by pass  2 Test12= 6.28D-15 2.56D-09 XBig12= 4.19D-03 1.10D-02.
     33 vectors produced by pass  3 Test12= 6.28D-15 2.56D-09 XBig12= 2.18D-05 6.40D-04.
     33 vectors produced by pass  4 Test12= 6.28D-15 2.56D-09 XBig12= 4.68D-08 2.55D-05.
     31 vectors produced by pass  5 Test12= 6.28D-15 2.56D-09 XBig12= 6.13D-11 8.64D-07.
      6 vectors produced by pass  6 Test12= 6.28D-15 2.56D-09 XBig12= 5.03D-14 3.58D-08.
 InvSVY:  IOpt=1 It=  1 EMax= 1.11D-15
 Solved reduced A of dimension   202 with    33 vectors.
 End of Minotr F.D. properties file   721 does not exist.
 End of Minotr F.D. properties file   722 does not exist.
 End of Minotr F.D. properties file   788 does not exist.
 Calling FoFJK, ICntrl=    100127 FMM=F ISym2X=0 I1Cent= 0 IOpClX= 0 NMat=1 NMatS=1 NMatT=0.
 -------------------------------------------------------------------
 Center     Atomic                   Forces (Hartrees/Bohr)
 Number     Number              X              Y              Z
 -------------------------------------------------------------------
      1        6          -0.001763676    0.005542776   -0.001264262
      2        6           0.005866323   -0.010140322    0.002107706
      3        6           0.001091491   -0.001018517    0.001204725
      4        8           0.001487792   -0.018699261    0.002154236
      5        8          -0.004136108    0.018486242   -0.002469269
      6        8          -0.000128939    0.000148910   -0.000348923
      7        1          -0.000250396    0.000595538   -0.000153046
      8        1           0.000828158    0.000453346    0.000486563
      9        1           0.000126377   -0.000094225    0.000016429
     10        1          -0.000094281    0.000273725   -0.000056909
     11        1          -0.002352934    0.003320654   -0.001330750
     12        1          -0.000673807    0.001131134   -0.000346500
 -------------------------------------------------------------------
 Cartesian Forces:  Max     0.018699261 RMS     0.005067010
 IRC-IRC-IRC-IRC-IRC-IRC-IRC-IRC-IRC-IRC-IRC-IRC-IRC-IRC-IRC-IRC-IRC-IRC
 Pt  2 Step number   1 out of a maximum of 100
 Modified Bulirsch-Stoer Extrapolation Cycles:
    EPS =    0.000010000000000
      PEZero:  N= 2 I= 1 D=  9.58D-04 Err=  4.96D-05
      PEZero:  N= 3 I= 2 D=  9.58D-04 Err=  3.30D-05
      PEZero:  N= 3 I= 1 D=  1.92D-03 Err=  2.50D-07
 Maximum DWI energy   std dev =  0.000013781 at pt    30
 Maximum DWI gradient std dev =  0.117345508 at pt    38
 CORRECTOR INTEGRATION CONVERGENCE:
   Recorrection delta-x convergence threshold:    0.010000
   Delta-x Convergence Met
 Point Number:   2          Path Number:   1
   CHANGE IN THE REACTION COORDINATE =    0.18377
   NET REACTION COORDINATE UP TO THIS POINT =    0.36408
  # OF POINTS ALONG THE PATH =   2
  # OF STEPS =   1

 Calculating another point on the path.
 IRC-IRC-IRC-IRC-IRC-IRC-IRC-IRC-IRC-IRC-IRC-IRC-IRC-IRC-IRC-IRC-IRC-IRC
                          Input orientation:                          
 ---------------------------------------------------------------------
 Center     Atomic      Atomic             Coordinates (Angstroms)
 Number     Number       Type             X           Y           Z
 ---------------------------------------------------------------------
      1          6           0       -0.429848   -0.961674   -0.101675
      2          6           0        0.413175   -0.133312    0.795762
      3          6           0        1.738526    0.260068    0.391832
      4          8           0       -1.773544   -0.682369   -0.095171
      5          8           0       -1.714827    1.205823   -0.080653
      6          8           0        2.222907    0.100660   -0.734588
      7          1           0       -1.664673    1.276574   -1.049449
      8          1           0       -0.491441   -1.974809    0.376699
      9          1           0        0.009263   -1.060043   -1.103486
     10          1           0        2.326568    0.794515    1.166929
     11          1           0       -0.771155    1.101209    0.269606
     12          1           0        0.173259   -0.101099    1.858675
 ---------------------------------------------------------------------
                    Distance matrix (angstroms):
                    1          2          3          4          5
     1  C    0.000000
     2  C    1.484003   0.000000
     3  C    2.537331   1.440299   0.000000
     4  O    1.372433   2.424245   3.668786   0.000000
     5  O    2.519852   2.662664   3.611557   1.889160   0.000000
     6  O    2.926814   2.381563   1.236470   4.122330   4.141831
     7  H    2.726320   3.116092   3.833059   2.181732   0.972670
     8  H    1.122086   2.094053   3.157160   1.880651   3.438352
     9  H    1.098235   2.151538   2.639890   2.082724   3.025363
    10  H    3.505907   2.158634   1.110046   4.537069   4.249531
    11  H    2.123635   1.789837   2.649709   2.078219   1.012000
    12  H    2.224253   1.090130   2.175346   2.818764   3.005646
                    6          7          8          9         10
     6  O    0.000000
     7  H    4.073719   0.000000
     8  H    3.593079   3.739232   0.000000
     9  H    2.526566   2.874849   1.810649   0.000000
    10  H    2.026807   4.590721   4.029242   3.736853   0.000000
    11  H    3.312689   1.602821   3.090565   2.676834   3.239620
    12  H    3.311613   3.705828   2.479691   3.117831   2.432566
                   11         12
    11  H    0.000000
    12  H    2.205131   0.000000
 Symmetry turned off by external request.
 Stoichiometry    C3H6O3
 Framework group  C1[X(C3H6O3)]
 Deg. of freedom    30
 Full point group                 C1      NOp   1
 Rotational constants (GHZ):           6.5355138           2.0063837           1.8198977
 Standard basis: 6-31+G(d) (6D, 7F)
   126 basis functions,   216 primitive gaussians,   126 cartesian basis functions
    24 alpha electrons       24 beta electrons
       nuclear repulsion energy       235.4332467400 Hartrees.
 NAtoms=   12 NActive=   12 NUniq=   12 SFac= 1.00D+00 NAtFMM=   60 NAOKFM=F Big=F
 Integral buffers will be    131072 words long.
 Raffenetti 2 integral format.
 Two-electron integral symmetry is turned off.
 One-electron integrals computed using PRISM.
 NBasis=   126 RedAO= T EigKep=  9.34D-05  NBF=   126
 NBsUse=   126 1.00D-06 EigRej= -1.00D+00 NBFU=   126
 Initial guess from the checkpoint file:  "/scratch/bell/zhao922/YARP/paper-example/KHP-network/pp_0/IRC-folder/Gau-60945.chk"
 B after Tr=    -0.000378    0.001138   -0.000211
         Rot=    1.000000    0.000291    0.000040   -0.000024 Ang=   0.03 deg.
 ExpMin= 4.38D-02 ExpMax= 5.48D+03 ExpMxC= 8.25D+02 IAcc=3 IRadAn=         5 AccDes= 0.00D+00
 Harris functional with IExCor=  402 and IRadAn=       5 diagonalized for initial guess.
 HarFok:  IExCor=  402 AccDes= 0.00D+00 IRadAn=         5 IDoV= 1 UseB2=F ITyADJ=14
 ICtDFT=  3500011 ScaDFX=  1.000000  1.000000  1.000000  1.000000
 FoFCou: FMM=F IPFlag=           0 FMFlag=      100000 FMFlg1=           0
         NFxFlg=           0 DoJE=T BraDBF=F KetDBF=T FulRan=T
         wScrn=  0.000000 ICntrl=       500 IOpCl=  0 I1Cent=   200000004 NGrid=           0
         NMat0=    1 NMatS0=      1 NMatT0=    0 NMatD0=    1 NMtDS0=    0 NMtDT0=    0
 Symmetry not used in FoFCou.
 Keep R1 ints in memory in canonical form, NReq=47237243.
 Requested convergence on RMS density matrix=1.00D-08 within 128 cycles.
 Requested convergence on MAX density matrix=1.00D-06.
 Requested convergence on             energy=1.00D-06.
 No special actions if energy rises.
 EnCoef did    13 forward-backward iterations
 EnCoef did     4 forward-backward iterations
 SCF Done:  E(RB3LYP) =  -343.408325852     A.U. after   14 cycles
            NFock= 14  Conv=0.78D-08     -V/T= 2.0089
 DoSCS=F DFT=T ScalE2(SS,OS)=  1.000000  1.000000
 Range of M.O.s used for correlation:     1   126
 NBasis=   126 NAE=    24 NBE=    24 NFC=     0 NFV=     0
 NROrb=    126 NOA=    24 NOB=    24 NVA=   102 NVB=   102

 **** Warning!!: The largest alpha MO coefficient is  0.31275405D+02


 **** Warning!!: The smallest alpha delta epsilon is  0.65148511D-01

 Symmetrizing basis deriv contribution to polar:
 IMax=3 JMax=2 DiffMx= 0.00D+00
 G2DrvN: will do    13 centers at a time, making    1 passes.
 Calling FoFCou, ICntrl=  3107 FMM=F I1Cent=   0 AccDes= 0.00D+00.
 End of G2Drv F.D. properties file   721 does not exist.
 End of G2Drv F.D. properties file   722 does not exist.
 End of G2Drv F.D. properties file   788 does not exist.
          IDoAtm=111111111111
          Differentiating once with respect to nuclear coordinates.
 Keep R1 ints in memory in canonical form, NReq=47193258.
          There are    39 degrees of freedom in the 1st order CPHF.  IDoFFX=6 NUNeed=     0.
     33 vectors produced by pass  0 Test12= 6.28D-15 2.56D-09 XBig12= 4.25D-01 4.62D-01.
 AX will form    33 AO Fock derivatives at one time.
     33 vectors produced by pass  1 Test12= 6.28D-15 2.56D-09 XBig12= 5.48D-01 1.85D-01.
     33 vectors produced by pass  2 Test12= 6.28D-15 2.56D-09 XBig12= 4.36D-03 1.03D-02.
     33 vectors produced by pass  3 Test12= 6.28D-15 2.56D-09 XBig12= 2.28D-05 6.53D-04.
     33 vectors produced by pass  4 Test12= 6.28D-15 2.56D-09 XBig12= 5.19D-08 2.91D-05.
     31 vectors produced by pass  5 Test12= 6.28D-15 2.56D-09 XBig12= 6.95D-11 8.53D-07.
      7 vectors produced by pass  6 Test12= 6.28D-15 2.56D-09 XBig12= 5.79D-14 3.79D-08.
 InvSVY:  IOpt=1 It=  1 EMax= 2.22D-15
 Solved reduced A of dimension   203 with    33 vectors.
 End of Minotr F.D. properties file   721 does not exist.
 End of Minotr F.D. properties file   722 does not exist.
 End of Minotr F.D. properties file   788 does not exist.
 Calling FoFJK, ICntrl=    100127 FMM=F ISym2X=0 I1Cent= 0 IOpClX= 0 NMat=1 NMatS=1 NMatT=0.
 -------------------------------------------------------------------
 Center     Atomic                   Forces (Hartrees/Bohr)
 Number     Number              X              Y              Z
 -------------------------------------------------------------------
      1        6          -0.001911103    0.006370852   -0.001733000
      2        6           0.006064409   -0.011676958    0.002312281
      3        6           0.001751521   -0.001412715    0.001280984
      4        8           0.002019185   -0.022754672    0.003107360
      5        8          -0.007541898    0.023132078   -0.004127970
      6        8          -0.000187032    0.000178324   -0.000173422
      7        1          -0.000487093    0.000727574   -0.000223558
      8        1           0.001135497    0.000503037    0.000502663
      9        1           0.000129069   -0.000044552   -0.000018415
     10        1          -0.000095276    0.000322229   -0.000065012
     11        1          -0.000064994    0.003424758   -0.000506316
     12        1          -0.000812284    0.001230046   -0.000355595
 -------------------------------------------------------------------
 Cartesian Forces:  Max     0.023132078 RMS     0.006213958
 IRC-IRC-IRC-IRC-IRC-IRC-IRC-IRC-IRC-IRC-IRC-IRC-IRC-IRC-IRC-IRC-IRC-IRC
 Pt  3 Step number   1 out of a maximum of 100
 Modified Bulirsch-Stoer Extrapolation Cycles:
    EPS =    0.000010000000000
      PEZero:  N= 2 I= 1 D=  9.59D-04 Err=  4.18D-05
      PEZero:  N= 3 I= 2 D=  9.59D-04 Err=  2.78D-05
      PEZero:  N= 3 I= 1 D=  1.92D-03 Err=  1.63D-07
 Maximum DWI energy   std dev =  0.000005648 at pt    31
 Maximum DWI gradient std dev =  0.029112159 at pt    34
 CORRECTOR INTEGRATION CONVERGENCE:
   Recorrection delta-x convergence threshold:    0.010000
   Delta-x Convergence Met
 Point Number:   3          Path Number:   1
   CHANGE IN THE REACTION COORDINATE =    0.18396
   NET REACTION COORDINATE UP TO THIS POINT =    0.54804
  # OF POINTS ALONG THE PATH =   3
  # OF STEPS =   1

 Calculating another point on the path.
 IRC-IRC-IRC-IRC-IRC-IRC-IRC-IRC-IRC-IRC-IRC-IRC-IRC-IRC-IRC-IRC-IRC-IRC
                          Input orientation:                          
 ---------------------------------------------------------------------
 Center     Atomic      Atomic             Coordinates (Angstroms)
 Number     Number       Type             X           Y           Z
 ---------------------------------------------------------------------
      1          6           0       -0.431268   -0.956831   -0.103152
      2          6           0        0.417593   -0.142184    0.797416
      3          6           0        1.740025    0.258862    0.392819
      4          8           0       -1.772247   -0.695837   -0.093163
      5          8           0       -1.718737    1.219644   -0.082883
      6          8           0        2.222808    0.100757   -0.734636
      7          1           0       -1.669563    1.283230   -1.051725
      8          1           0       -0.480184   -1.970472    0.381028
      9          1           0        0.010377   -1.060054   -1.103913
     10          1           0        2.325817    0.797421    1.166369
     11          1           0       -0.780693    1.131838    0.261157
     12          1           0        0.165553   -0.090403    1.856487
 ---------------------------------------------------------------------
                    Distance matrix (angstroms):
                    1          2          3          4          5
     1  C    0.000000
     2  C    1.481633   0.000000
     3  C    2.537402   1.439917   0.000000
     4  O    1.366179   2.427975   3.672014   0.000000
     5  O    2.528840   2.682053   3.621108   1.916256   0.000000
     6  O    2.925984   2.380127   1.236621   4.123896   4.148791
     7  H    2.729659   3.131669   3.842047   2.201384   0.972171
     8  H    1.124407   2.078947   3.146331   1.875894   3.453414
     9  H    1.098740   2.150201   2.640346   2.081350   3.037986
    10  H    3.505795   2.158773   1.109765   4.539865   4.254094
    11  H    2.148804   1.829370   2.670850   2.109294   1.002996
    12  H    2.224203   1.089879   2.177905   2.814739   3.004651
                    6          7          8          9         10
     6  O    0.000000
     7  H    4.080361   0.000000
     8  H    3.583415   3.748864   0.000000
     9  H    2.525608   2.883731   1.809575   0.000000
    10  H    2.027257   4.595543   4.018910   3.737065   0.000000
    11  H    3.328026   1.592692   3.119136   2.700667   3.252944
    12  H    3.314025   3.703001   2.475605   3.119018   2.435412
                   11         12
    11  H    0.000000
    12  H    2.221335   0.000000
 Symmetry turned off by external request.
 Stoichiometry    C3H6O3
 Framework group  C1[X(C3H6O3)]
 Deg. of freedom    30
 Full point group                 C1      NOp   1
 Rotational constants (GHZ):           6.4638206           2.0039452           1.8128048
 Standard basis: 6-31+G(d) (6D, 7F)
   126 basis functions,   216 primitive gaussians,   126 cartesian basis functions
    24 alpha electrons       24 beta electrons
       nuclear repulsion energy       235.0463340621 Hartrees.
 NAtoms=   12 NActive=   12 NUniq=   12 SFac= 1.00D+00 NAtFMM=   60 NAOKFM=F Big=F
 Integral buffers will be    131072 words long.
 Raffenetti 2 integral format.
 Two-electron integral symmetry is turned off.
 One-electron integrals computed using PRISM.
 NBasis=   126 RedAO= T EigKep=  9.36D-05  NBF=   126
 NBsUse=   126 1.00D-06 EigRej= -1.00D+00 NBFU=   126
 Initial guess from the checkpoint file:  "/scratch/bell/zhao922/YARP/paper-example/KHP-network/pp_0/IRC-folder/Gau-60945.chk"
 B after Tr=    -0.000204    0.001064   -0.000186
         Rot=    1.000000    0.000242    0.000029   -0.000020 Ang=   0.03 deg.
 ExpMin= 4.38D-02 ExpMax= 5.48D+03 ExpMxC= 8.25D+02 IAcc=3 IRadAn=         5 AccDes= 0.00D+00
 Harris functional with IExCor=  402 and IRadAn=       5 diagonalized for initial guess.
 HarFok:  IExCor=  402 AccDes= 0.00D+00 IRadAn=         5 IDoV= 1 UseB2=F ITyADJ=14
 ICtDFT=  3500011 ScaDFX=  1.000000  1.000000  1.000000  1.000000
 FoFCou: FMM=F IPFlag=           0 FMFlag=      100000 FMFlg1=           0
         NFxFlg=           0 DoJE=T BraDBF=F KetDBF=T FulRan=T
         wScrn=  0.000000 ICntrl=       500 IOpCl=  0 I1Cent=   200000004 NGrid=           0
         NMat0=    1 NMatS0=      1 NMatT0=    0 NMatD0=    1 NMtDS0=    0 NMtDT0=    0
 Symmetry not used in FoFCou.
 Keep R1 ints in memory in canonical form, NReq=47237243.
 Requested convergence on RMS density matrix=1.00D-08 within 128 cycles.
 Requested convergence on MAX density matrix=1.00D-06.
 Requested convergence on             energy=1.00D-06.
 No special actions if energy rises.
 EnCoef did    15 forward-backward iterations
 EnCoef did     3 forward-backward iterations
 SCF Done:  E(RB3LYP) =  -343.410299789     A.U. after   14 cycles
            NFock= 14  Conv=0.79D-08     -V/T= 2.0089
 DoSCS=F DFT=T ScalE2(SS,OS)=  1.000000  1.000000
 Range of M.O.s used for correlation:     1   126
 NBasis=   126 NAE=    24 NBE=    24 NFC=     0 NFV=     0
 NROrb=    126 NOA=    24 NOB=    24 NVA=   102 NVB=   102

 **** Warning!!: The largest alpha MO coefficient is  0.32164219D+02


 **** Warning!!: The smallest alpha delta epsilon is  0.65415303D-01

 Symmetrizing basis deriv contribution to polar:
 IMax=3 JMax=2 DiffMx= 0.00D+00
 G2DrvN: will do    13 centers at a time, making    1 passes.
 Calling FoFCou, ICntrl=  3107 FMM=F I1Cent=   0 AccDes= 0.00D+00.
 End of G2Drv F.D. properties file   721 does not exist.
 End of G2Drv F.D. properties file   722 does not exist.
 End of G2Drv F.D. properties file   788 does not exist.
          IDoAtm=111111111111
          Differentiating once with respect to nuclear coordinates.
 Keep R1 ints in memory in canonical form, NReq=47193258.
          There are    39 degrees of freedom in the 1st order CPHF.  IDoFFX=6 NUNeed=     0.
     33 vectors produced by pass  0 Test12= 6.28D-15 2.56D-09 XBig12= 4.42D-01 4.77D-01.
 AX will form    33 AO Fock derivatives at one time.
     33 vectors produced by pass  1 Test12= 6.28D-15 2.56D-09 XBig12= 6.09D-01 1.85D-01.
     33 vectors produced by pass  2 Test12= 6.28D-15 2.56D-09 XBig12= 4.42D-03 1.00D-02.
     33 vectors produced by pass  3 Test12= 6.28D-15 2.56D-09 XBig12= 2.33D-05 6.64D-04.
     33 vectors produced by pass  4 Test12= 6.28D-15 2.56D-09 XBig12= 5.60D-08 3.05D-05.
     31 vectors produced by pass  5 Test12= 6.28D-15 2.56D-09 XBig12= 7.52D-11 1.06D-06.
      7 vectors produced by pass  6 Test12= 6.28D-15 2.56D-09 XBig12= 6.24D-14 4.35D-08.
 InvSVY:  IOpt=1 It=  1 EMax= 1.55D-15
 Solved reduced A of dimension   203 with    33 vectors.
 End of Minotr F.D. properties file   721 does not exist.
 End of Minotr F.D. properties file   722 does not exist.
 End of Minotr F.D. properties file   788 does not exist.
 Calling FoFJK, ICntrl=    100127 FMM=F ISym2X=0 I1Cent= 0 IOpClX= 0 NMat=1 NMatS=1 NMatT=0.
 -------------------------------------------------------------------
 Center     Atomic                   Forces (Hartrees/Bohr)
 Number     Number              X              Y              Z
 -------------------------------------------------------------------
      1        6          -0.001781771    0.006471529   -0.002125154
      2        6           0.005559899   -0.011844088    0.002287494
      3        6           0.002183300   -0.001741674    0.001294684
      4        8           0.002404178   -0.024623759    0.003885574
      5        8          -0.007500542    0.025390698   -0.004255462
      6        8          -0.000169224    0.000162950    0.000018987
      7        1          -0.000622604    0.000758532   -0.000263271
      8        1           0.001370921    0.000500998    0.000469003
      9        1           0.000109916    0.000023766   -0.000071736
     10        1          -0.000077010    0.000311922   -0.000060277
     11        1          -0.000637674    0.003440632   -0.000801730
     12        1          -0.000839389    0.001148495   -0.000378110
 -------------------------------------------------------------------
 Cartesian Forces:  Max     0.025390698 RMS     0.006667405
 IRC-IRC-IRC-IRC-IRC-IRC-IRC-IRC-IRC-IRC-IRC-IRC-IRC-IRC-IRC-IRC-IRC-IRC
 Pt  4 Step number   1 out of a maximum of 100
 Modified Bulirsch-Stoer Extrapolation Cycles:
    EPS =    0.000010000000000
      PEZero:  N= 2 I= 1 D=  9.59D-04 Err=  2.65D-05
      PEZero:  N= 3 I= 2 D=  9.59D-04 Err=  1.77D-05
      PEZero:  N= 3 I= 1 D=  1.92D-03 Err=  6.16D-08
 Maximum DWI energy   std dev =  0.000002010 at pt    13
 Maximum DWI gradient std dev =  0.014083118 at pt    13
 CORRECTOR INTEGRATION CONVERGENCE:
   Recorrection delta-x convergence threshold:    0.010000
   Delta-x Convergence Met
 Point Number:   4          Path Number:   1
   CHANGE IN THE REACTION COORDINATE =    0.18408
   NET REACTION COORDINATE UP TO THIS POINT =    0.73212
  # OF POINTS ALONG THE PATH =   4
  # OF STEPS =   1

 Calculating another point on the path.
 IRC-IRC-IRC-IRC-IRC-IRC-IRC-IRC-IRC-IRC-IRC-IRC-IRC-IRC-IRC-IRC-IRC-IRC
                          Input orientation:                          
 ---------------------------------------------------------------------
 Center     Atomic      Atomic             Coordinates (Angstroms)
 Number     Number       Type             X           Y           Z
 ---------------------------------------------------------------------
      1          6           0       -0.432508   -0.952172   -0.104812
      2          6           0        0.421429   -0.150652    0.798947
      3          6           0        1.741679    0.257502    0.393771
      4          8           0       -1.770867   -0.709457   -0.090890
      5          8           0       -1.722678    1.233746   -0.085157
      6          8           0        2.222732    0.100835   -0.734587
      7          1           0       -1.675329    1.289756   -1.054128
      8          1           0       -0.467572   -1.966311    0.384966
      9          1           0        0.011259   -1.059591   -1.104752
     10          1           0        2.325262    0.799952    1.165913
     11          1           0       -0.789197    1.161373    0.252795
     12          1           0        0.158112   -0.080965    1.854026
 ---------------------------------------------------------------------
                    Distance matrix (angstroms):
                    1          2          3          4          5
     1  C    0.000000
     2  C    1.479333   0.000000
     3  C    2.537516   1.440075   0.000000
     4  O    1.360261   2.431098   3.675308   0.000000
     5  O    2.538339   2.700999   3.631004   1.943809   0.000000
     6  O    2.925020   2.379005   1.236587   4.125500   4.155900
     7  H    2.733504   3.147230   3.852000   2.221218   0.971743
     8  H    1.126761   2.063570   3.134679   1.872084   3.469391
     9  H    1.099248   2.149065   2.640958   2.080020   3.050493
    10  H    3.505706   2.159372   1.109515   4.542702   4.259010
    11  H    2.173059   1.866898   2.691132   2.140514   0.995407
    12  H    2.223709   1.089671   2.180502   2.810455   3.004374
                    6          7          8          9         10
     6  O    0.000000
     7  H    4.087850   0.000000
     8  H    3.572706   3.759207   0.000000
     9  H    2.524723   2.892502   1.808502   0.000000
    10  H    2.027603   4.601436   4.007744   3.737436   0.000000
    11  H    3.342362   1.584222   3.146954   2.723297   3.265618
    12  H    3.316115   3.701045   2.470657   3.119878   2.438453
                   11         12
    11  H    0.000000
    12  H    2.237127   0.000000
 Symmetry turned off by external request.
 Stoichiometry    C3H6O3
 Framework group  C1[X(C3H6O3)]
 Deg. of freedom    30
 Full point group                 C1      NOp   1
 Rotational constants (GHZ):           6.3917528           2.0015509           1.8055670
 Standard basis: 6-31+G(d) (6D, 7F)
   126 basis functions,   216 primitive gaussians,   126 cartesian basis functions
    24 alpha electrons       24 beta electrons
       nuclear repulsion energy       234.6565451175 Hartrees.
 NAtoms=   12 NActive=   12 NUniq=   12 SFac= 1.00D+00 NAtFMM=   60 NAOKFM=F Big=F
 Integral buffers will be    131072 words long.
 Raffenetti 2 integral format.
 Two-electron integral symmetry is turned off.
 One-electron integrals computed using PRISM.
 NBasis=   126 RedAO= T EigKep=  9.39D-05  NBF=   126
 NBsUse=   126 1.00D-06 EigRej= -1.00D+00 NBFU=   126
 Initial guess from the checkpoint file:  "/scratch/bell/zhao922/YARP/paper-example/KHP-network/pp_0/IRC-folder/Gau-60945.chk"
 B after Tr=    -0.000170    0.001016   -0.000205
         Rot=    1.000000    0.000215    0.000024   -0.000024 Ang=   0.02 deg.
 ExpMin= 4.38D-02 ExpMax= 5.48D+03 ExpMxC= 8.25D+02 IAcc=3 IRadAn=         5 AccDes= 0.00D+00
 Harris functional with IExCor=  402 and IRadAn=       5 diagonalized for initial guess.
 HarFok:  IExCor=  402 AccDes= 0.00D+00 IRadAn=         5 IDoV= 1 UseB2=F ITyADJ=14
 ICtDFT=  3500011 ScaDFX=  1.000000  1.000000  1.000000  1.000000
 FoFCou: FMM=F IPFlag=           0 FMFlag=      100000 FMFlg1=           0
         NFxFlg=           0 DoJE=T BraDBF=F KetDBF=T FulRan=T
         wScrn=  0.000000 ICntrl=       500 IOpCl=  0 I1Cent=   200000004 NGrid=           0
         NMat0=    1 NMatS0=      1 NMatT0=    0 NMatD0=    1 NMtDS0=    0 NMtDT0=    0
 Symmetry not used in FoFCou.
 Keep R1 ints in memory in canonical form, NReq=47237243.
 Requested convergence on RMS density matrix=1.00D-08 within 128 cycles.
 Requested convergence on MAX density matrix=1.00D-06.
 Requested convergence on             energy=1.00D-06.
 No special actions if energy rises.
 EnCoef did    13 forward-backward iterations
 EnCoef did     4 forward-backward iterations
 SCF Done:  E(RB3LYP) =  -343.412375901     A.U. after   14 cycles
            NFock= 14  Conv=0.72D-08     -V/T= 2.0089
 DoSCS=F DFT=T ScalE2(SS,OS)=  1.000000  1.000000
 Range of M.O.s used for correlation:     1   126
 NBasis=   126 NAE=    24 NBE=    24 NFC=     0 NFV=     0
 NROrb=    126 NOA=    24 NOB=    24 NVA=   102 NVB=   102

 **** Warning!!: The largest alpha MO coefficient is  0.32913172D+02


 **** Warning!!: The smallest alpha delta epsilon is  0.65975607D-01

 Symmetrizing basis deriv contribution to polar:
 IMax=3 JMax=2 DiffMx= 0.00D+00
 G2DrvN: will do    13 centers at a time, making    1 passes.
 Calling FoFCou, ICntrl=  3107 FMM=F I1Cent=   0 AccDes= 0.00D+00.
 End of G2Drv F.D. properties file   721 does not exist.
 End of G2Drv F.D. properties file   722 does not exist.
 End of G2Drv F.D. properties file   788 does not exist.
          IDoAtm=111111111111
          Differentiating once with respect to nuclear coordinates.
 Keep R1 ints in memory in canonical form, NReq=47193258.
          There are    39 degrees of freedom in the 1st order CPHF.  IDoFFX=6 NUNeed=     0.
     33 vectors produced by pass  0 Test12= 6.28D-15 2.56D-09 XBig12= 4.55D-01 4.88D-01.
 AX will form    33 AO Fock derivatives at one time.
     33 vectors produced by pass  1 Test12= 6.28D-15 2.56D-09 XBig12= 6.62D-01 1.83D-01.
     33 vectors produced by pass  2 Test12= 6.28D-15 2.56D-09 XBig12= 4.45D-03 1.00D-02.
     33 vectors produced by pass  3 Test12= 6.28D-15 2.56D-09 XBig12= 2.37D-05 6.79D-04.
     33 vectors produced by pass  4 Test12= 6.28D-15 2.56D-09 XBig12= 5.97D-08 3.05D-05.
     31 vectors produced by pass  5 Test12= 6.28D-15 2.56D-09 XBig12= 7.92D-11 1.25D-06.
      7 vectors produced by pass  6 Test12= 6.28D-15 2.56D-09 XBig12= 6.48D-14 4.69D-08.
 InvSVY:  IOpt=1 It=  1 EMax= 1.78D-15
 Solved reduced A of dimension   203 with    33 vectors.
 End of Minotr F.D. properties file   721 does not exist.
 End of Minotr F.D. properties file   722 does not exist.
 End of Minotr F.D. properties file   788 does not exist.
 Calling FoFJK, ICntrl=    100127 FMM=F ISym2X=0 I1Cent= 0 IOpClX= 0 NMat=1 NMatS=1 NMatT=0.
 -------------------------------------------------------------------
 Center     Atomic                   Forces (Hartrees/Bohr)
 Number     Number              X              Y              Z
 -------------------------------------------------------------------
      1        6          -0.001624506    0.006463990   -0.002466512
      2        6           0.004988376   -0.011699235    0.002161061
      3        6           0.002447621   -0.002037027    0.001301840
      4        8           0.002657248   -0.025789705    0.004505839
      5        8          -0.007838037    0.026786329   -0.004474049
      6        8          -0.000125176    0.000131201    0.000203165
      7        1          -0.000746605    0.000767905   -0.000282550
      8        1           0.001590191    0.000510521    0.000449479
      9        1           0.000085290    0.000078430   -0.000122183
     10        1          -0.000057060    0.000272607   -0.000045959
     11        1          -0.000535335    0.003475157   -0.000831305
     12        1          -0.000842007    0.001039826   -0.000398824
 -------------------------------------------------------------------
 Cartesian Forces:  Max     0.026786329 RMS     0.006951425
 IRC-IRC-IRC-IRC-IRC-IRC-IRC-IRC-IRC-IRC-IRC-IRC-IRC-IRC-IRC-IRC-IRC-IRC
 Pt  5 Step number   1 out of a maximum of 100
 Modified Bulirsch-Stoer Extrapolation Cycles:
    EPS =    0.000010000000000
      PEZero:  N= 2 I= 1 D=  9.59D-04 Err=  2.29D-05
      PEZero:  N= 3 I= 2 D=  9.59D-04 Err=  1.52D-05
      PEZero:  N= 3 I= 1 D=  1.92D-03 Err=  4.18D-08
 Maximum DWI energy   std dev =  0.000001320 at pt    28
 Maximum DWI gradient std dev =  0.008592228 at pt    25
 CORRECTOR INTEGRATION CONVERGENCE:
   Recorrection delta-x convergence threshold:    0.010000
   Delta-x Convergence Met
 Point Number:   5          Path Number:   1
   CHANGE IN THE REACTION COORDINATE =    0.18410
   NET REACTION COORDINATE UP TO THIS POINT =    0.91623
  # OF POINTS ALONG THE PATH =   5
  # OF STEPS =   1

 Calculating another point on the path.
 IRC-IRC-IRC-IRC-IRC-IRC-IRC-IRC-IRC-IRC-IRC-IRC-IRC-IRC-IRC-IRC-IRC-IRC
                          Input orientation:                          
 ---------------------------------------------------------------------
 Center     Atomic      Atomic             Coordinates (Angstroms)
 Number     Number       Type             X           Y           Z
 ---------------------------------------------------------------------
      1          6           0       -0.433607   -0.947670   -0.106656
      2          6           0        0.424746   -0.158710    0.800336
      3          6           0        1.743438    0.255978    0.394700
      4          8           0       -1.769409   -0.723193   -0.088385
      5          8           0       -1.726673    1.248042   -0.087460
      6          8           0        2.222687    0.100892   -0.734442
      7          1           0       -1.681926    1.296111   -1.056620
      8          1           0       -0.453483   -1.962159    0.388722
      9          1           0        0.011892   -1.058726   -1.105979
     10          1           0        2.324887    0.801997    1.165616
     11          1           0       -0.796141    1.190456    0.244606
     12          1           0        0.150960   -0.072775    1.851355
 ---------------------------------------------------------------------
                    Distance matrix (angstroms):
                    1          2          3          4          5
     1  C    0.000000
     2  C    1.477113   0.000000
     3  C    2.537646   1.440643   0.000000
     4  O    1.354655   2.433677   3.678619   0.000000
     5  O    2.548242   2.719510   3.641200   1.971698   0.000000
     6  O    2.923952   2.378135   1.236404   4.127146   4.163170
     7  H    2.737752   3.162729   3.862813   2.241143   0.971383
     8  H    1.129151   2.047716   3.121958   1.869313   3.486137
     9  H    1.099750   2.148142   2.641730   2.078728   3.062869
    10  H    3.505611   2.160307   1.109294   4.545546   4.264305
    11  H    2.196907   1.902537   2.710210   2.172599   0.989684
    12  H    2.222829   1.089489   2.183096   2.805967   3.004841
                    6          7          8          9         10
     6  O    0.000000
     7  H    4.096138   0.000000
     8  H    3.560837   3.770200   0.000000
     9  H    2.523959   2.901157   1.807455   0.000000
    10  H    2.027860   4.608366   3.995430   3.737966   0.000000
    11  H    3.355445   1.577646   3.174455   2.745145   3.277191
    12  H    3.317916   3.699952   2.464633   3.120459   2.441603
                   11         12
    11  H    0.000000
    12  H    2.252642   0.000000
 Symmetry turned off by external request.
 Stoichiometry    C3H6O3
 Framework group  C1[X(C3H6O3)]
 Deg. of freedom    30
 Full point group                 C1      NOp   1
 Rotational constants (GHZ):           6.3197034           1.9991976           1.7982178
 Standard basis: 6-31+G(d) (6D, 7F)
   126 basis functions,   216 primitive gaussians,   126 cartesian basis functions
    24 alpha electrons       24 beta electrons
       nuclear repulsion energy       234.2631171878 Hartrees.
 NAtoms=   12 NActive=   12 NUniq=   12 SFac= 1.00D+00 NAtFMM=   60 NAOKFM=F Big=F
 Integral buffers will be    131072 words long.
 Raffenetti 2 integral format.
 Two-electron integral symmetry is turned off.
 One-electron integrals computed using PRISM.
 NBasis=   126 RedAO= T EigKep=  9.43D-05  NBF=   126
 NBsUse=   126 1.00D-06 EigRej= -1.00D+00 NBFU=   126
 Initial guess from the checkpoint file:  "/scratch/bell/zhao922/YARP/paper-example/KHP-network/pp_0/IRC-folder/Gau-60945.chk"
 B after Tr=    -0.000123    0.000979   -0.000216
         Rot=    1.000000    0.000191    0.000020   -0.000025 Ang=   0.02 deg.
 ExpMin= 4.38D-02 ExpMax= 5.48D+03 ExpMxC= 8.25D+02 IAcc=3 IRadAn=         5 AccDes= 0.00D+00
 Harris functional with IExCor=  402 and IRadAn=       5 diagonalized for initial guess.
 HarFok:  IExCor=  402 AccDes= 0.00D+00 IRadAn=         5 IDoV= 1 UseB2=F ITyADJ=14
 ICtDFT=  3500011 ScaDFX=  1.000000  1.000000  1.000000  1.000000
 FoFCou: FMM=F IPFlag=           0 FMFlag=      100000 FMFlg1=           0
         NFxFlg=           0 DoJE=T BraDBF=F KetDBF=T FulRan=T
         wScrn=  0.000000 ICntrl=       500 IOpCl=  0 I1Cent=   200000004 NGrid=           0
         NMat0=    1 NMatS0=      1 NMatT0=    0 NMatD0=    1 NMtDS0=    0 NMtDT0=    0
 Symmetry not used in FoFCou.
 Keep R1 ints in memory in canonical form, NReq=47237243.
 Requested convergence on RMS density matrix=1.00D-08 within 128 cycles.
 Requested convergence on MAX density matrix=1.00D-06.
 Requested convergence on             energy=1.00D-06.
 No special actions if energy rises.
 EnCoef did    11 forward-backward iterations
 SCF Done:  E(RB3LYP) =  -343.414506137     A.U. after   14 cycles
            NFock= 14  Conv=0.69D-08     -V/T= 2.0088
 DoSCS=F DFT=T ScalE2(SS,OS)=  1.000000  1.000000
 Range of M.O.s used for correlation:     1   126
 NBasis=   126 NAE=    24 NBE=    24 NFC=     0 NFV=     0
 NROrb=    126 NOA=    24 NOB=    24 NVA=   102 NVB=   102

 **** Warning!!: The largest alpha MO coefficient is  0.33579983D+02


 **** Warning!!: The smallest alpha delta epsilon is  0.66777562D-01

 Symmetrizing basis deriv contribution to polar:
 IMax=3 JMax=2 DiffMx= 0.00D+00
 G2DrvN: will do    13 centers at a time, making    1 passes.
 Calling FoFCou, ICntrl=  3107 FMM=F I1Cent=   0 AccDes= 0.00D+00.
 End of G2Drv F.D. properties file   721 does not exist.
 End of G2Drv F.D. properties file   722 does not exist.
 End of G2Drv F.D. properties file   788 does not exist.
          IDoAtm=111111111111
[...]
  11                    0.69650   1.15931  -0.01546   0.82012   1.19241
  12                    0.70298   1.15627  -0.02138   0.82444   1.18162
  13                    0.70789   1.15403  -0.02694   0.83033   1.16785
  14                    0.71170   1.15251  -0.03225   0.83725   1.15150
  15                    0.71481   1.15161  -0.03745   0.84483   1.13273
  16                    0.71756   1.15128  -0.04262   0.85283   1.11148
  17                    0.72033   1.15145  -0.04784   0.86102   1.08759
  18                    0.72346   1.15202  -0.05309   0.86923   1.06089
  19                    0.72727   1.15290  -0.05829   0.87725   1.03129
  20                    0.73200   1.15399  -0.06334   0.88484   0.99887
  21                    0.73771   1.15517  -0.06816   0.89176   0.96395
  22                    0.74428   1.15636  -0.07272   0.89782   0.92711
  23                    0.75140   1.15745  -0.07699   0.90284   0.88931
  24                    0.75854   1.15838  -0.08094   0.90670   0.85210
  25                    0.76507   1.15914  -0.08458   0.90932   0.81730
  26                    0.77054   1.15977  -0.08807   0.91070   0.78582
  27                    0.77487   1.16036  -0.09181   0.91085   0.75729
  28                    0.77812   1.16096  -0.09635   0.90964   0.73073
  29                    0.78037   1.16163  -0.10247   0.90672   0.70510
  30                    0.78168   1.16240  -0.11120   0.90148   0.67951
  31                    0.78212   1.16329  -0.12396   0.89296   0.65316
  32                    0.78185   1.16428  -0.14254   0.87984   0.62537
  33                    0.78116   1.16534  -0.16892   0.86083   0.59572
  34                    0.78051   1.16638  -0.20546   0.83693   0.56383
  35                    0.78039   1.16729  -0.25731   0.81933   0.52851
  36                    0.78089   1.16795  -0.32543   0.82630   0.49059
  37                    0.78166   1.16836  -0.39908   0.85098   0.45351
  38                    0.78254   1.16861  -0.47368   0.88208   0.41757
  39                    0.78352   1.16870  -0.54802   0.91572   0.38257
  40                    0.78465   1.16864  -0.61992   0.95176   0.34898
  41                    0.78623   1.16844  -0.68367   0.99055   0.31867
  42                    0.78850   1.16807  -0.72741   1.03163   0.29637
  43                    0.79148   1.16751  -0.75365   1.06794   0.28116
  44                    0.79453   1.16693  -0.76921   1.10123   0.27043
  45                    0.79742   1.16637  -0.78007   1.13192   0.26143
  46                    0.79995   1.16591  -0.78872   1.16143   0.25299
  47                    0.80199   1.16562  -0.79581   1.19051   0.24474
  48                    0.80347   1.16553  -0.80179   1.21958   0.23640
  49                    0.80434   1.16567  -0.80691   1.24894   0.22781
  50                    0.80456   1.16606  -0.81133   1.27875   0.21883
  51                    0.80415   1.16671  -0.81521   1.30910   0.20936
  52                    0.80314   1.16761  -0.81863   1.34002   0.19931
  53                    0.80163   1.16872  -0.82169   1.37142   0.18865
  54                    0.79976   1.17001  -0.82446   1.40303   0.17743
  55                    0.79772   1.17139  -0.82704   1.43436   0.16581
  56                    0.79580   1.17276  -0.82947   1.46456   0.15412
  57                    0.79424   1.17399  -0.83176   1.49250   0.14289
  58                    0.79325   1.17498  -0.83390   1.51701   0.13272
  59                    0.79282   1.17568  -0.83584   1.53743   0.12403
  60                    0.79279   1.17609  -0.83754   1.55392   0.11690
  61                    0.79298   1.17628  -0.83900   1.56716   0.11113
  62                    0.79321   1.17628  -0.84025   1.57803   0.10643
  63                    0.79339   1.17617  -0.84132   1.58730   0.10251
  64                    0.79343   1.17597  -0.84227   1.59563   0.09910
  65                    0.79329   1.17573  -0.84315   1.60358   0.09599
  66                    0.79291   1.17546  -0.84402   1.61164   0.09301
  67                    0.79223   1.17522  -0.84496   1.62031   0.08998
  68                    0.79116   1.17504  -0.84605   1.63007   0.08673
  69                    0.78966   1.17497  -0.84737   1.64142   0.08308
  70                    0.78771   1.17508  -0.84905   1.65497   0.07883
  71                    0.78543   1.17536  -0.85125   1.67155   0.07368
  72                    0.78311   1.17574  -0.85423   1.69223   0.06723
  73                    0.78138   1.17601  -0.85832   1.71819   0.05904
  74                    0.78111   1.17584  -0.86397   1.75039   0.04868
  75                    0.78303   1.17491  -0.87170   1.78908   0.03593
  76                    0.78724   1.17317  -0.88197   1.83374   0.02086
  77                    0.79308   1.17084  -0.89526   1.88336   0.00375
  78                    0.79959   1.16828  -0.91201   1.93681  -0.01505
  79                    0.80596   1.16581  -0.93257   1.99294  -0.03513
  80                    0.81168   1.16361  -0.95718   2.05062  -0.05610
  81                    0.81656   1.16178  -0.98596   2.10877  -0.07763
                          X12       Y12       Z12
   1                    0.49808  -0.64461   1.80838
   2                    0.50783  -0.65752   1.81017
   3                    0.51774  -0.67025   1.81170
   4                    0.52769  -0.68255   1.81302
   5                    0.53746  -0.69399   1.81424
   6                    0.54671  -0.70397   1.81554
   7                    0.55494  -0.71159   1.81716
   8                    0.56148  -0.71578   1.81942
   9                    0.56572  -0.71558   1.82256
  10                    0.56740  -0.71066   1.82665
  11                    0.56671  -0.70153   1.83145
  12                    0.56409  -0.68909   1.83665
  13                    0.55987  -0.67418   1.84194
  14                    0.55423  -0.65736   1.84710
  15                    0.54715  -0.63898   1.85195
  16                    0.53851  -0.61917   1.85641
  17                    0.52810  -0.59797   1.86039
  18                    0.51570  -0.57542   1.86386
  19                    0.50114  -0.55152   1.86678
  20                    0.48435  -0.52638   1.86910
  21                    0.46543  -0.50017   1.87079
  22                    0.44464  -0.47313   1.87181
  23                    0.42250  -0.44575   1.87218
  24                    0.39996  -0.41885   1.87196
  25                    0.37829  -0.39352   1.87136
  26                    0.35834  -0.37034   1.87060
  27                    0.34017  -0.34905   1.86982
  28                    0.32341  -0.32901   1.86908
  29                    0.30763  -0.30957   1.86842
  30                    0.29252  -0.29020   1.86783
  31                    0.27787  -0.27053   1.86728
  32                    0.26365  -0.25041   1.86672
  33                    0.25001  -0.23007   1.86608
  34                    0.23737  -0.21023   1.86533
  35                    0.22650  -0.19241   1.86461
  36                    0.21863  -0.17906   1.86413
  37                    0.21325  -0.16962   1.86382
  38                    0.20903  -0.16196   1.86358
  39                    0.20517  -0.15480   1.86336
  40                    0.20100  -0.14710   1.86306
  41                    0.19573  -0.13762   1.86258
  42                    0.18887  -0.12564   1.86166
  43                    0.18111  -0.11299   1.86031
  44                    0.17327  -0.10110   1.85850
  45                    0.16559  -0.09043   1.85635
  46                    0.15815  -0.08100   1.85391
  47                    0.15100  -0.07282   1.85126
  48                    0.14418  -0.06587   1.84848
  49                    0.13772  -0.06017   1.84564
  50                    0.13166  -0.05571   1.84283
  51                    0.12601  -0.05248   1.84011
  52                    0.12077  -0.05047   1.83755
  53                    0.11589  -0.04960   1.83518
  54                    0.11132  -0.04980   1.83304
  55                    0.10697  -0.05091   1.83113
  56                    0.10270  -0.05264   1.82941
  57                    0.09838  -0.05459   1.82781
  58                    0.09388  -0.05614   1.82623
  59                    0.08918  -0.05669   1.82454
  60                    0.08430  -0.05579   1.82264
  61                    0.07931  -0.05326   1.82046
  62                    0.07422  -0.04905   1.81794
  63                    0.06904  -0.04317   1.81502
  64                    0.06368  -0.03558   1.81161
  65                    0.05801  -0.02614   1.80754
  66                    0.05188  -0.01465   1.80257
  67                    0.04516  -0.00087   1.79642
  68                    0.03774   0.01521   1.78875
  69                    0.02961   0.03344   1.77924
  70                    0.02072   0.05349   1.76757
  71                    0.01108   0.07500   1.75347
  72                    0.00075   0.09741   1.73681
  73                   -0.00999   0.11985   1.71788
  74                   -0.02058   0.14111   1.69758
  75                   -0.03040   0.15999   1.67729
  76                   -0.03902   0.17579   1.65831
  77                   -0.04635   0.18843   1.64139
  78                   -0.05252   0.19826   1.62676
  79                   -0.05772   0.20572   1.61434
  80                   -0.06214   0.21123   1.60394
  81                   -0.06595   0.21518   1.59530
 --------------------------------------------------------------------------
 
 Total number of points:                   80
 Total number of gradient calculations:    83
 Total number of Hessian calculations:     81
 IRC-IRC-IRC-IRC-IRC-IRC-IRC-IRC-IRC-IRC-IRC-IRC-IRC-IRC-IRC-IRC-IRC-IRC
                          Input orientation:                          
 ---------------------------------------------------------------------
 Center     Atomic      Atomic             Coordinates (Angstroms)
 Number     Number       Type             X           Y           Z
 ---------------------------------------------------------------------
      1          6           0       -0.409451   -0.744718   -0.186637
      2          6           0        0.473165   -0.076001    0.868244
      3          6           0        1.890515    0.187029    0.418818
      4          8           0       -1.796505   -0.470280    0.018045
      5          8           0       -1.980287    0.954580   -0.244762
      6          8           0        2.304565    0.024234   -0.711211
      7          1           0       -2.539838    0.912677   -1.041616
      8          1           0       -0.361748   -1.837941   -0.124593
      9          1           0       -0.112905   -0.438839   -1.195173
     10          1           0        2.568559    0.579168    1.208071
     11          1           0        0.044560    0.903980    1.127874
     12          1           0        0.498028   -0.644620    1.808463
 ---------------------------------------------------------------------
                    Distance matrix (angstroms):
                    1          2          3          4          5
     1  C    0.000000
     2  C    1.529369   0.000000
     3  C    2.554324   1.509983   0.000000
     4  O    1.428681   2.455545   3.766536   0.000000
     5  O    2.314847   2.884494   4.001573   1.460503   0.000000
     6  O    2.869207   2.420486   1.214457   4.194656   4.409430
     7  H    2.831342   3.701789   4.720961   1.894201   0.974592
     8  H    1.096021   2.187977   3.077091   1.987303   3.229905
     9  H    1.094828   2.175505   2.647711   2.075427   2.516349
    10  H    3.544916   2.221576   1.111952   4.644490   4.789954
    11  H    2.156912   1.100669   2.103410   2.551437   2.446772
    12  H    2.194073   1.099071   2.135831   2.915625   3.593775
                    6          7          8          9         10
     6  O    0.000000
     7  H    4.936269   0.000000
     8  H    3.304700   3.626418   0.000000
     9  H    2.508549   2.782119   1.779200   0.000000
    10  H    2.015264   5.591784   4.025557   3.741947   0.000000
    11  H    3.043651   3.374297   3.041693   2.687845   2.546077
    12  H    3.171702   4.447106   2.428978   3.072037   2.478957
                   11         12
    11  H    0.000000
    12  H    1.751284   0.000000
 Symmetry turned off by external request.
 Stoichiometry    C3H6O3
 Framework group  C1[X(C3H6O3)]
 Deg. of freedom    30
 Full point group                 C1      NOp   1
 Rotational constants (GHZ):           8.4058854           1.7497700           1.7252908

 **********************************************************************

            Population analysis using the SCF Density.

 **********************************************************************

 Alpha  occ. eigenvalues --  -19.22742 -19.22522 -19.17219 -10.29715 -10.25403
 Alpha  occ. eigenvalues --  -10.21375  -1.13334  -1.06537  -0.93312  -0.78809
 Alpha  occ. eigenvalues --   -0.67030  -0.58597  -0.53801  -0.51231  -0.49299
 Alpha  occ. eigenvalues --   -0.47249  -0.44622  -0.43887  -0.41149  -0.38635
 Alpha  occ. eigenvalues --   -0.36309  -0.32564  -0.29054  -0.26831
 Alpha virt. eigenvalues --   -0.04316  -0.01222   0.00785   0.01018   0.03236
 Alpha virt. eigenvalues --    0.03708   0.05467   0.06595   0.07160   0.08778
 Alpha virt. eigenvalues --    0.09194   0.11496   0.12334   0.13276   0.15058
 Alpha virt. eigenvalues --    0.16602   0.17400   0.19124   0.19540   0.21175
 Alpha virt. eigenvalues --    0.22704   0.23670   0.24430   0.24844   0.26501
 Alpha virt. eigenvalues --    0.27063   0.28825   0.29098   0.30365   0.30888
 Alpha virt. eigenvalues --    0.33412   0.35510   0.37256   0.37773   0.38184
 Alpha virt. eigenvalues --    0.45480   0.63690   0.64893   0.65998   0.68582
 Alpha virt. eigenvalues --    0.70027   0.70697   0.77828   0.84679   0.86024
 Alpha virt. eigenvalues --    0.91848   0.93621   0.94298   1.02490   1.04558
 Alpha virt. eigenvalues --    1.06489   1.08979   1.10633   1.12673   1.15748
 Alpha virt. eigenvalues --    1.21529   1.22938   1.25164   1.26407   1.27111
 Alpha virt. eigenvalues --    1.29941   1.30563   1.40255   1.44871   1.50677
 Alpha virt. eigenvalues --    1.52833   1.56592   1.58615   1.65047   1.65448
 Alpha virt. eigenvalues --    1.71402   1.73669   1.77275   1.81286   1.85244
 Alpha virt. eigenvalues --    1.88033   1.91661   1.94793   2.02244   2.05789
 Alpha virt. eigenvalues --    2.08484   2.10027   2.24243   2.29079   2.31339
 Alpha virt. eigenvalues --    2.38235   2.45969   2.46281   2.53441   2.56765
 Alpha virt. eigenvalues --    2.58143   2.71105   2.86109   2.90888   3.05799
 Alpha virt. eigenvalues --    3.12025   3.95878   4.12317   4.19255   4.24303
 Alpha virt. eigenvalues --    4.35346   4.54086
          Condensed to atoms (all electrons):
               1          2          3          4          5          6
     1  C    5.353379  -0.118891   0.024450   0.113139  -0.052360   0.052778
     2  C   -0.118891   6.544977  -0.115791  -0.046244  -0.016431  -0.181975
     3  C    0.024450  -0.115791   5.043566   0.018977   0.019944   0.468654
     4  O    0.113139  -0.046244   0.018977   8.071138   0.121556   0.000002
     5  O   -0.052360  -0.016431   0.019944   0.121556   8.271887  -0.000527
     6  O    0.052778  -0.181975   0.468654   0.000002  -0.000527   8.092732
     7  H    0.007890  -0.004815   0.001067  -0.032752   0.192537  -0.000006
     8  H    0.399983  -0.055528   0.009662  -0.043621   0.007873  -0.000417
     9  H    0.447790  -0.114694   0.013569  -0.039996  -0.002935  -0.001146
    10  H    0.032704  -0.172013   0.410631  -0.000561   0.000116  -0.065308
    11  H   -0.031450   0.364811  -0.019059  -0.009306   0.002492  -0.000619
    12  H   -0.019611   0.346297  -0.025478   0.003396   0.000397   0.002128
               7          8          9         10         11         12
     1  C    0.007890   0.399983   0.447790   0.032704  -0.031450  -0.019611
     2  C   -0.004815  -0.055528  -0.114694  -0.172013   0.364811   0.346297
     3  C    0.001067   0.009662   0.013569   0.410631  -0.019059  -0.025478
     4  O   -0.032752  -0.043621  -0.039996  -0.000561  -0.009306   0.003396
     5  O    0.192537   0.007873  -0.002935   0.000116   0.002492   0.000397
     6  O   -0.000006  -0.000417  -0.001146  -0.065308  -0.000619   0.002128
     7  H    0.356878  -0.000255   0.002187   0.000000  -0.000064  -0.000002
     8  H   -0.000255   0.504075  -0.028235  -0.000153   0.002928  -0.005771
     9  H    0.002187  -0.028235   0.497396   0.000054  -0.001085   0.003533
    10  H    0.000000  -0.000153   0.000054   0.631449   0.001111   0.002016
    11  H   -0.000064   0.002928  -0.001085   0.001111   0.456614  -0.027202
    12  H   -0.000002  -0.005771   0.003533   0.002016  -0.027202   0.495169
 Mulliken charges:
               1
     1  C   -0.209799
     2  C   -0.429703
     3  C    0.149805
     4  O   -0.155728
     5  O   -0.544548
     6  O   -0.366294
     7  H    0.477334
     8  H    0.209460
     9  H    0.223562
    10  H    0.159954
    11  H    0.260829
    12  H    0.225130
 Sum of Mulliken charges =  -0.00000
 Mulliken charges with hydrogens summed into heavy atoms:
               1
     1  C    0.223223
     2  C    0.056255
     3  C    0.309759
     4  O   -0.155728
     5  O   -0.067214
     6  O   -0.366294
 APT charges:
               1
     1  C   -0.681731
     2  C   -0.662809
     3  C   -0.407608
     4  O   -0.201316
     5  O   -0.806753
     6  O   -0.256836
     7  H    0.765133
     8  H    0.482201
     9  H    0.364389
    10  H    0.519894
    11  H    0.404424
    12  H    0.481012
 Sum of APT charges =  -0.00000
 APT charges with hydrogens summed into heavy atoms:
               1
     1  C    0.164860
     2  C    0.222627
     3  C    0.112285
     4  O   -0.201316
     5  O   -0.041620
     6  O   -0.256836
 Electronic spatial extent (au):  <R**2>=            704.2431
 Charge=             -0.0000 electrons
 Dipole moment (field-independent basis, Debye):
    X=             -0.6676    Y=             -0.1735    Z=              0.8547  Tot=              1.0983
 Quadrupole moment (field-independent basis, Debye-Ang):
   XX=            -40.7718   YY=            -34.8825   ZZ=            -34.0564
   XY=             -0.9141   XZ=              9.8934   YZ=             -1.0712
 Traceless Quadrupole moment (field-independent basis, Debye-Ang):
   XX=             -4.2016   YY=              1.6877   ZZ=              2.5138
   XY=             -0.9141   XZ=              9.8934   YZ=             -1.0712
 Octapole moment (field-independent basis, Debye-Ang**2):
  XXX=            -26.5424  YYY=             -0.4914  ZZZ=             -6.2436  XYY=             -1.2631
  XXY=              8.0393  XXZ=             -2.5181  XZZ=             -8.7542  YZZ=              2.5147
  YYZ=             -2.3708  XYZ=              4.4277
 Hexadecapole moment (field-independent basis, Debye-Ang**3):
 XXXX=           -635.5191 YYYY=           -109.6996 ZZZZ=           -116.6305 XXXY=             -9.8344
 XXXZ=             51.0962 YYYX=              7.8862 YYYZ=             -1.2936 ZZZX=             -2.7820
 ZZZY=             -3.1645 XXYY=           -122.3446 XXZZ=           -115.6886 YYZZ=            -37.3431
 XXYZ=            -10.1721 YYXZ=              0.3784 ZZXY=             -3.0554
 N-N= 2.361588739918D+02 E-N=-1.277023615239D+03  KE= 3.403736513350D+02
  Exact polarizability:   0.000   0.000   0.000   0.000   0.000   0.000
 Approx polarizability:  64.126  -3.550  64.169  -4.809   0.827  72.393

 This type of calculation cannot be archived.


 ... THE UNIVERSE IS NOT ONLY QUEERER THAN WE SUPPOSE,
 BUT QUEERER THAN WE CAN SUPPOSE ... 

                                   -- J. B. S. HALDANE
 Job cpu time:       0 days  6 hours 35 minutes 44.5 seconds.
 Elapsed time:       0 days  0 hours 28 minutes 56.5 seconds.
 File lengths (MBytes):  RWF=     28 Int=      0 D2E=      0 Chk=      4 Scr=      1
 Normal termination of Gaussian 16 at Wed Dec 23 23:55:36 2020.
