 Entering Gaussian System, Link 0=g16
 Initial command:
 /apps/cent7/gaussian/g16-B.01/g16-haswell/g16/l1.exe "/scratch/bell/zhao922/YARP/paper-example/KHP-network/pp_0/IRC-folder/Gau-72611.inp" -scrdir="/scratch/bell/zhao922/YARP/paper-example/KHP-network/pp_0/IRC-folder/"
 Entering Link 1 = /apps/cent7/gaussian/g16-B.01/g16-haswell/g16/l1.exe PID=     72613.
  
 Copyright (c) 1988-2017, Gaussian, Inc.  All Rights Reserved.
  
 This is part of the Gaussian(R) 16 program.  It is based on
 the Gaussian(R) 09 system (copyright 2009, Gaussian, Inc.),
 the Gaussian(R) 03 system (copyright 2003, Gaussian, Inc.),
 the Gaussian(R) 98 system (copyright 1998, Gaussian, Inc.),
 the Gaussian(R) 94 system (copyright 1995, Gaussian, Inc.),
 the Gaussian 92(TM) system (copyright 1992, Gaussian, Inc.),
 the Gaussian 90(TM) system (copyright 1990, Gaussian, Inc.),
 the Gaussian 88(TM) system (copyright 1988, Gaussian, Inc.),
 the Gaussian 86(TM) system (copyright 1986, Carnegie Mellon
 University), and the Gaussian 82(TM) system (copyright 1983,
 Carnegie Mellon University). Gaussian is a federally registered
 trademark of Gaussian, Inc.
  
 This software contains proprietary and confidential information,
 including trade secrets, belonging to Gaussian, Inc.
  
 This software is provided under written license and may be
 used, copied, transmitted, or stored only in accord with that
 written license.
  
 The following legend is applicable only to US Government
 contracts under FAR:
  
                    RESTRICTED RIGHTS LEGEND
  
 Use, reproduction and disclosure by the US Government is
 subject to restrictions as set forth in subparagraphs (a)
 and (c) of the Commercial Computer Software - Restricted
 Rights clause in FAR 52.227-19.
  
 Gaussian, Inc.
 340 Quinnipiac St., Bldg. 40, Wallingford CT 06492
  
  
 ---------------------------------------------------------------
 Warning -- This program may not be used in any manner that
 competes with the business of Gaussian, Inc. or will provide
 assistance to any competitor of Gaussian, Inc.  The licensee
 of this program is prohibited from giving any competitor of
 Gaussian, Inc. access to this program.  By using this program,
 the user acknowledges that Gaussian, Inc. is engaged in the
 business of creating and licensing software in the field of
 computational chemistry and represents and warrants to the
 licensee that it is not a competitor of Gaussian, Inc. and that
 it will not use this program in any manner prohibited above.
 ---------------------------------------------------------------
  

 Cite this work as:
 Gaussian 16, Revision B.01,
 M. J. Frisch, G. W. Trucks, H. B. Schlegel, G. E. Scuseria, 
 M. A. Robb, J. R. Cheeseman, G. Scalmani, V. Barone, 
 G. A. Petersson, H. Nakatsuji, X. Li, M. Caricato, A. V. Marenich, 
 J. Bloino, B. G. Janesko, R. Gomperts, B. Mennucci, H. P. Hratchian, 
 J. V. Ortiz, A. F. Izmaylov, J. L. Sonnenberg, D. Williams-Young, 
 F. Ding, F. Lipparini, F. Egidi, J. Goings, B. Peng, A. Petrone, 
 T. Henderson, D. Ranasinghe, V. G. Zakrzewski, J. Gao, N. Rega, 
 G. Zheng, W. Liang, M. Hada, M. Ehara, K. Toyota, R. Fukuda, 
 J. Hasegawa, M. Ishida, T. Nakajima, Y. Honda, O. Kitao, H. Nakai, 
 T. Vreven, K. Throssell, J. A. Montgomery, Jr., J. E. Peralta, 
 F. Ogliaro, M. J. Bearpark, J. J. Heyd, E. N. Brothers, K. N. Kudin, 
 V. N. Staroverov, T. A. Keith, R. Kobayashi, J. Normand, 
 K. Raghavachari, A. P. Rendell, J. C. Burant, S. S. Iyengar, 
 J. Tomasi, M. Cossi, J. M. Millam, M. Klene, C. Adamo, R. Cammi, 
 J. W. Ochterski, R. L. Martin, K. Morokuma, O. Farkas, 
 J. B. Foresman, and D. J. Fox, Gaussian, Inc., Wallingford CT, 2016.
 
 ******************************************
 Gaussian 16:  ES64L-G16RevB.01 20-Dec-2017
                23-Dec-2020 
 ******************************************
 %NProcShared=16
 Will use up to   16 processors via shared memory.
 %Mem=6GB
 ----------------------------------------------------------------------
 # B3LYP/6-31+G* IRC=(CALCALL, maxpoints=40, StepSize=15, maxcyc=100, R
 eport=Cartesians)
 ----------------------------------------------------------------------
 1/6=100,10=4,18=10,26=3,38=1,39=15,42=40,44=3,71=1,129=10,172=1/1,23;
 2/12=2,17=6,18=5,29=1,40=1/2;
 3/5=1,6=6,7=11,11=2,25=1,30=1,71=2,74=-5,140=1/1,2,3;
 4//1;
 5/5=2,38=5/2;
 8/6=4,10=90,11=11/1;
 11/6=1,8=1,9=11,15=111,16=1/1,2,10;
 10/6=1,13=1/2;
 6/7=2,8=2,9=2,10=2,18=1,28=1/1;
 7/10=1,25=1/1,2,3,16;
 1/6=100,10=4,18=10,26=3,39=15,42=40,44=3,71=1,129=10/23(2);
 2/29=1/2;
 99/5=20/99;
 2/29=1/2;
 3/5=1,6=6,7=11,11=2,25=1,30=1,71=2,74=-5,140=1/1,2,3;
 4/5=5,16=3,69=1/1;
 5/5=2,38=5/2;
 8/6=4,10=90,11=11/1;
 11/6=1,8=1,9=11,15=111,16=1/1,2,10;
 10/6=1,13=1/2;
 7/10=1,25=1/1,2,3,16;
 1/6=100,10=4,18=10,26=3,39=15,42=40,44=3,71=1,129=10/23(-8);
 2/29=1/2;
 6/7=2,8=2,9=2,10=2,18=1,19=2,28=1/1;
 99/5=20/99;
 -----------
 pp_21_0 IRC
 -----------
 Symbolic Z-matrix:
 Charge =  0 Multiplicity = 1
 C                    -0.41399  -0.98028  -0.34427 
 C                     0.85907  -0.66218   0.27596 
 C                     1.78895   0.26308  -0.33349 
 O                    -1.15344   0.08751   0.39524 
 O                    -2.98569   0.58507  -0.14639 
 O                     2.86708   0.58176   0.16095 
 H                    -3.36582   0.40651   0.73363 
 H                    -0.50485  -0.80402  -1.41807 
 H                    -0.89242  -1.91224  -0.04971 
 H                     1.4901    0.66543  -1.32736 
 H                    -1.0487    0.94194  -0.06607 
 H                     1.09393  -1.05601   1.26002 
 
 IRC-IRC-IRC-IRC-IRC-IRC-IRC-IRC-IRC-IRC-IRC-IRC-IRC-IRC-IRC-IRC-IRC-IRC
 ------------------------------------------------------------------------
 INPUT DATA FOR L123
 ------------------------------------------------------------------------
 GENERAL PARAMETERS:
 Follow reaction path in both directions.
 Maximum points per path      =  40
 Step size                    =   0.150 bohr
 Integration scheme           = HPC                                 
    Redo corrector integration= Yes                                 
    DWI Weight Power          =  2
    DWI will use Hessian update vectors when possible.
    Max correction cycles     = 100
 Initial Hessian              = CalcFC
 Hessian evaluation           = Analytic at all predictor steps
                              = Update at all corrector steps
 Hessian updating method      = Bofill                              
 ------------------------------------------------------------------------
 IRC-IRC-IRC-IRC-IRC-IRC-IRC-IRC-IRC-IRC-IRC-IRC-IRC-IRC-IRC-IRC-IRC-IRC
                          Input orientation:                          
 ---------------------------------------------------------------------
 Center     Atomic      Atomic             Coordinates (Angstroms)
 Number     Number       Type             X           Y           Z
 ---------------------------------------------------------------------
      1          6           0       -0.413990   -0.980281   -0.344271
      2          6           0        0.859074   -0.662183    0.275955
      3          6           0        1.788948    0.263083   -0.333488
      4          8           0       -1.153438    0.087505    0.395243
      5          8           0       -2.985693    0.585065   -0.146394
      6          8           0        2.867077    0.581764    0.160949
      7          1           0       -3.365822    0.406509    0.733626
      8          1           0       -0.504850   -0.804020   -1.418067
      9          1           0       -0.892418   -1.912235   -0.049712
     10          1           0        1.490103    0.665427   -1.327357
     11          1           0       -1.048701    0.941943   -0.066074
     12          1           0        1.093926   -1.056006    1.260023
 ---------------------------------------------------------------------
                    Distance matrix (angstroms):
                    1          2          3          4          5
     1  C    0.000000
     2  C    1.451399   0.000000
     3  C    2.529626   1.446445   0.000000
     4  O    1.494601   2.150922   3.036365   0.000000
     5  O    3.017138   4.064018   4.789141   1.974359   0.000000
     6  O    3.668873   2.364890   1.228164   4.057552   5.860835
     7  H    3.434874   4.381930   5.266019   2.260732   0.975098
     8  H    1.091953   2.179476   2.752550   2.122163   3.114690
     9  H    1.088208   2.176330   3.464428   2.065206   3.260008
    10  H    2.701922   2.175168   1.113088   3.207749   4.629674
    11  H    2.043330   2.515911   2.929951   0.976651   1.971231
    12  H    2.203022   1.085653   2.182276   2.665728   4.616754
                    6          7          8          9         10
     6  O    0.000000
     7  H    6.261605   0.000000
     8  H    3.972855   3.778932   0.000000
     9  H    4.516438   3.479644   1.802982   0.000000
    10  H    2.029313   5.281543   2.479383   3.735388   0.000000
    11  H    3.938856   2.509036   2.274213   2.858500   2.848302
    12  H    2.652229   4.722859   3.129177   2.528655   3.132862
                   11         12
    11  H    0.000000
    12  H    3.215771   0.000000
 Symmetry turned off by external request.
 Stoichiometry    C3H6O3
 Framework group  C1[X(C3H6O3)]
 Deg. of freedom    30
 Full point group                 C1      NOp   1
 Rotational constants (GHZ):          10.4363753           1.3497510           1.2724132
 Standard basis: 6-31+G(d) (6D, 7F)
   126 basis functions,   216 primitive gaussians,   126 cartesian basis functions
    24 alpha electrons       24 beta electrons
       nuclear repulsion energy       223.1173979881 Hartrees.
 NAtoms=   12 NActive=   12 NUniq=   12 SFac= 1.00D+00 NAtFMM=   60 NAOKFM=F Big=F
 Integral buffers will be    131072 words long.
 Raffenetti 2 integral format.
 Two-electron integral symmetry is turned off.
 One-electron integrals computed using PRISM.
 NBasis=   126 RedAO= T EigKep=  9.90D-05  NBF=   126
 NBsUse=   126 1.00D-06 EigRej= -1.00D+00 NBFU=   126
 ExpMin= 4.38D-02 ExpMax= 5.48D+03 ExpMxC= 8.25D+02 IAcc=3 IRadAn=         5 AccDes= 0.00D+00
 Harris functional with IExCor=  402 and IRadAn=       5 diagonalized for initial guess.
 HarFok:  IExCor=  402 AccDes= 0.00D+00 IRadAn=         5 IDoV= 1 UseB2=F ITyADJ=14
 ICtDFT=  3500011 ScaDFX=  1.000000  1.000000  1.000000  1.000000
 FoFCou: FMM=F IPFlag=           0 FMFlag=      100000 FMFlg1=           0
         NFxFlg=           0 DoJE=T BraDBF=F KetDBF=T FulRan=T
         wScrn=  0.000000 ICntrl=       500 IOpCl=  0 I1Cent=   200000004 NGrid=           0
         NMat0=    1 NMatS0=      1 NMatT0=    0 NMatD0=    1 NMtDS0=    0 NMtDT0=    0
 Symmetry not used in FoFCou.
 Keep R1 ints in memory in canonical form, NReq=47237243.
 Requested convergence on RMS density matrix=1.00D-08 within 128 cycles.
 Requested convergence on MAX density matrix=1.00D-06.
 Requested convergence on             energy=1.00D-06.
 No special actions if energy rises.
 EnCoef did     2 forward-backward iterations
 EnCoef did     4 forward-backward iterations
 SCF Done:  E(RB3LYP) =  -343.423679113     A.U. after   17 cycles
            NFock= 17  Conv=0.25D-08     -V/T= 2.0093
 DoSCS=F DFT=T ScalE2(SS,OS)=  1.000000  1.000000
 Range of M.O.s used for correlation:     1   126
 NBasis=   126 NAE=    24 NBE=    24 NFC=     0 NFV=     0
 NROrb=    126 NOA=    24 NOB=    24 NVA=   102 NVB=   102

 **** Warning!!: The largest alpha MO coefficient is  0.30429197D+02


 **** Warning!!: The smallest alpha delta epsilon is  0.86571937D-01

 Symmetrizing basis deriv contribution to polar:
 IMax=3 JMax=2 DiffMx= 0.00D+00
 G2DrvN: will do    13 centers at a time, making    1 passes.
 Calling FoFCou, ICntrl=  3107 FMM=F I1Cent=   0 AccDes= 0.00D+00.
 End of G2Drv F.D. properties file   721 does not exist.
 End of G2Drv F.D. properties file   722 does not exist.
 End of G2Drv F.D. properties file   788 does not exist.
          IDoAtm=111111111111
          Differentiating once with respect to nuclear coordinates.
 Keep R1 ints in memory in canonical form, NReq=47193265.
          There are    39 degrees of freedom in the 1st order CPHF.  IDoFFX=6 NUNeed=     0.
     33 vectors produced by pass  0 Test12= 6.28D-15 2.56D-09 XBig12= 1.76D-01 2.23D-01.
 AX will form    33 AO Fock derivatives at one time.
     33 vectors produced by pass  1 Test12= 6.28D-15 2.56D-09 XBig12= 1.38D-01 8.39D-02.
     33 vectors produced by pass  2 Test12= 6.28D-15 2.56D-09 XBig12= 1.00D-03 5.61D-03.
     33 vectors produced by pass  3 Test12= 6.28D-15 2.56D-09 XBig12= 4.65D-06 3.66D-04.
     33 vectors produced by pass  4 Test12= 6.28D-15 2.56D-09 XBig12= 8.54D-09 1.40D-05.
     31 vectors produced by pass  5 Test12= 6.28D-15 2.56D-09 XBig12= 1.02D-11 5.21D-07.
      5 vectors produced by pass  6 Test12= 6.28D-15 2.56D-09 XBig12= 8.54D-15 1.12D-08.
 InvSVY:  IOpt=1 It=  1 EMax= 2.89D-15
 Solved reduced A of dimension   201 with    33 vectors.
 End of Minotr F.D. properties file   721 does not exist.
 End of Minotr F.D. properties file   722 does not exist.
 End of Minotr F.D. properties file   788 does not exist.

 **********************************************************************

            Population analysis using the SCF Density.

 **********************************************************************

 Alpha  occ. eigenvalues --  -19.28229 -19.17015 -19.16399 -10.29729 -10.29715
 Alpha  occ. eigenvalues --  -10.25569  -1.11193  -1.05772  -0.94285  -0.82334
 Alpha  occ. eigenvalues --   -0.70715  -0.60834  -0.57624  -0.52759  -0.50864
 Alpha  occ. eigenvalues --   -0.46275  -0.44701  -0.42872  -0.42253  -0.40861
 Alpha  occ. eigenvalues --   -0.38133  -0.29026  -0.28080  -0.25141
 Alpha virt. eigenvalues --   -0.16484  -0.01590  -0.01348   0.00396   0.00990
 Alpha virt. eigenvalues --    0.02977   0.05070   0.05736   0.06917   0.07845
 Alpha virt. eigenvalues --    0.08088   0.10243   0.10859   0.11864   0.14207
 Alpha virt. eigenvalues --    0.14727   0.16545   0.17049   0.18536   0.19927
 Alpha virt. eigenvalues --    0.20724   0.21607   0.22505   0.22913   0.24989
 Alpha virt. eigenvalues --    0.25995   0.27247   0.28170   0.29578   0.30447
 Alpha virt. eigenvalues --    0.32016   0.32797   0.34294   0.39347   0.39847
 Alpha virt. eigenvalues --    0.41299   0.60383   0.62588   0.65347   0.66894
 Alpha virt. eigenvalues --    0.75142   0.76150   0.79613   0.84644   0.86006
 Alpha virt. eigenvalues --    0.91762   0.94573   0.97796   1.01219   1.02288
 Alpha virt. eigenvalues --    1.02607   1.07305   1.10129   1.12395   1.15939
 Alpha virt. eigenvalues --    1.16705   1.20062   1.21090   1.22511   1.25160
 Alpha virt. eigenvalues --    1.26748   1.29335   1.31352   1.36525   1.40405
 Alpha virt. eigenvalues --    1.50994   1.54134   1.58367   1.60786   1.67806
 Alpha virt. eigenvalues --    1.68827   1.76205   1.78569   1.79977   1.80894
 Alpha virt. eigenvalues --    1.83233   1.85418   1.89938   1.93989   2.02061
 Alpha virt. eigenvalues --    2.04731   2.08897   2.11063   2.16590   2.27165
 Alpha virt. eigenvalues --    2.36352   2.40120   2.43201   2.46908   2.51606
 Alpha virt. eigenvalues --    2.56029   2.61103   2.75228   2.84268   2.97475
 Alpha virt. eigenvalues --    3.07702   3.89763   4.04245   4.12060   4.21522
 Alpha virt. eigenvalues --    4.38104   4.43569
          Condensed to atoms (all electrons):
               1          2          3          4          5          6
     1  C    5.666372  -0.369484   0.167332   0.036220   0.057003   0.043107
     2  C   -0.369484   6.472653   0.025303  -0.031052  -0.007007  -0.193923
     3  C    0.167332   0.025303   4.925529  -0.024574   0.004138   0.444937
     4  O    0.036220  -0.031052  -0.024574   8.423682  -0.115380  -0.004352
     5  O    0.057003  -0.007007   0.004138  -0.115380   8.576929  -0.000240
     6  O    0.043107  -0.193923   0.444937  -0.004352  -0.000240   8.162930
     7  H    0.005681  -0.004760   0.000689   0.002231   0.172738  -0.000001
     8  H    0.420062  -0.075199   0.003876  -0.053539   0.005538   0.000225
     9  H    0.408266  -0.047540   0.008426  -0.046871   0.002666  -0.000213
    10  H    0.081628  -0.241549   0.426695  -0.001590  -0.000064  -0.051745
    11  H    0.000105  -0.017575   0.016697   0.194653   0.019612  -0.000343
    12  H   -0.017197   0.328389  -0.003676   0.004159  -0.000033  -0.003246
               7          8          9         10         11         12
     1  C    0.005681   0.420062   0.408266   0.081628   0.000105  -0.017197
     2  C   -0.004760  -0.075199  -0.047540  -0.241549  -0.017575   0.328389
     3  C    0.000689   0.003876   0.008426   0.426695   0.016697  -0.003676
     4  O    0.002231  -0.053539  -0.046871  -0.001590   0.194653   0.004159
     5  O    0.172738   0.005538   0.002666  -0.000064   0.019612  -0.000033
     6  O   -0.000001   0.000225  -0.000213  -0.051745  -0.000343  -0.003246
     7  H    0.384115  -0.000104   0.000147  -0.000001  -0.000870   0.000006
     8  H   -0.000104   0.487092  -0.024580   0.002928  -0.003971   0.002680
     9  H    0.000147  -0.024580   0.467214  -0.000137   0.003781  -0.003230
    10  H   -0.000001   0.002928  -0.000137   0.622326   0.000471   0.003092
    11  H   -0.000870  -0.003971   0.003781   0.000471   0.256801  -0.000056
    12  H    0.000006   0.002680  -0.003230   0.003092  -0.000056   0.455593
 Mulliken charges:
               1
     1  C   -0.499097
     2  C    0.161745
     3  C    0.004628
     4  O   -0.383587
     5  O   -0.715900
     6  O   -0.397136
     7  H    0.440129
     8  H    0.234990
     9  H    0.232069
    10  H    0.157944
    11  H    0.530695
    12  H    0.233519
 Sum of Mulliken charges =  -0.00000
 Mulliken charges with hydrogens summed into heavy atoms:
               1
     1  C   -0.032037
     2  C    0.395264
     3  C    0.162573
     4  O    0.147108
     5  O   -0.275771
     6  O   -0.397136
 APT charges:
               1
     1  C   -1.081735
     2  C   -0.099941
     3  C   -0.526372
     4  O   -0.282850
     5  O   -1.053556
     6  O   -0.055544
     7  H    0.677399
     8  H    0.431880
     9  H    0.561122
    10  H    0.334071
    11  H    0.582626
    12  H    0.512901
 Sum of APT charges =  -0.00000
 APT charges with hydrogens summed into heavy atoms:
               1
     1  C   -0.088733
     2  C    0.412960
     3  C   -0.192301
     4  O    0.299776
     5  O   -0.376157
     6  O   -0.055544
 Electronic spatial extent (au):  <R**2>=            877.7760
 Charge=             -0.0000 electrons
 Dipole moment (field-independent basis, Debye):
    X=             -1.0153    Y=             -2.1071    Z=             -0.1581  Tot=              2.3443
 Quadrupole moment (field-independent basis, Debye-Ang):
   XX=            -55.5606   YY=            -34.5363   ZZ=            -34.4300
   XY=             -0.1670   XZ=             -6.2911   YZ=             -0.6639
 Traceless Quadrupole moment (field-independent basis, Debye-Ang):
   XX=            -14.0516   YY=              6.9727   ZZ=              7.0790
   XY=             -0.1670   XZ=             -6.2911   YZ=             -0.6639
 Octapole moment (field-independent basis, Debye-Ang**2):
  XXX=            -31.3730  YYY=             -0.5390  ZZZ=              1.1460  XYY=             -3.3071
  XXY=            -15.5189  XXZ=             15.9116  XZZ=             -3.3034  YZZ=             -0.1317
  YYZ=              1.5037  XYZ=             -3.7361
 Hexadecapole moment (field-independent basis, Debye-Ang**3):
 XXXX=          -1028.3821 YYYY=           -129.1806 ZZZZ=            -73.2665 XXXY=            -10.2373
 XXXZ=            -82.4483 YYYX=              8.3527 YYYZ=             -1.1053 ZZZX=             -3.9536
 ZZZY=             -1.2727 XXYY=           -184.0624 XXZZ=           -148.9961 YYZZ=            -33.3187
 XXYZ=              4.7088 YYXZ=             -0.9768 ZZXY=             -1.2357
 N-N= 2.231173979881D+02 E-N=-1.250333846710D+03  KE= 3.402537513247D+02
  Exact polarizability:   0.000   0.000   0.000   0.000   0.000   0.000
 Approx polarizability: 654.260-102.533  87.300  40.989  -9.976  64.497
 Calling FoFJK, ICntrl=    100127 FMM=F ISym2X=0 I1Cent= 0 IOpClX= 0 NMat=1 NMatS=1 NMatT=0.
 -------------------------------------------------------------------
 Center     Atomic                   Forces (Hartrees/Bohr)
 Number     Number              X              Y              Z
 -------------------------------------------------------------------
      1        6          -0.000000138   -0.000001452    0.000003632
      2        6           0.000002295   -0.000000944   -0.000000717
      3        6          -0.000000252   -0.000000097   -0.000000786
      4        8          -0.000001126    0.000000274   -0.000000300
      5        8          -0.000001248   -0.000000389   -0.000001042
      6        8          -0.000000036    0.000001328    0.000000389
      7        1           0.000000305   -0.000001447    0.000000179
      8        1           0.000001378    0.000000617   -0.000000041
      9        1           0.000001590   -0.000001531   -0.000000331
     10        1          -0.000000049    0.000000289   -0.000000358
     11        1          -0.000003269    0.000002542   -0.000001402
     12        1           0.000000549    0.000000811    0.000000777
 -------------------------------------------------------------------
 Cartesian Forces:  Max     0.000003632 RMS     0.000001282
 IRC-IRC-IRC-IRC-IRC-IRC-IRC-IRC-IRC-IRC-IRC-IRC-IRC-IRC-IRC-IRC-IRC-IRC
          ******** Start new reaction path calculation ********
 Supplied step size of   0.1500 bohr.
    Integration on MW PES will use step size of   0.2516 sqrt(amu)*bohr.
 Point Number:   0          Path Number:   1
 Calculating another point on the path.
 IRC-IRC-IRC-IRC-IRC-IRC-IRC-IRC-IRC-IRC-IRC-IRC-IRC-IRC-IRC-IRC-IRC-IRC
                          Input orientation:                          
 ---------------------------------------------------------------------
 Center     Atomic      Atomic             Coordinates (Angstroms)
 Number     Number       Type             X           Y           Z
 ---------------------------------------------------------------------
      1          6           0       -0.444670   -0.997991   -0.353912
      2          6           0        0.824581   -0.682872    0.268089
      3          6           0        1.755748    0.238866   -0.342523
      4          8           0       -1.208486    0.076049    0.374028
      5          8           0       -3.014220    0.561291   -0.147869
      6          8           0        2.832637    0.563608    0.151516
      7          1           0       -3.394164    0.358495    0.727591
      8          1           0       -0.533459   -0.823601   -1.428203
      9          1           0       -0.929962   -1.925217   -0.056050
     10          1           0        1.458622    0.635423   -1.339911
     11          1           0       -1.025471    0.939584   -0.050589
     12          1           0        1.056908   -1.074990    1.253408
 ---------------------------------------------------------------------
                    Distance matrix (angstroms):
                    1          2          3          4          5
     1  C    0.000000
     2  C    1.448166   0.000000
     3  C    2.524240   1.445517   0.000000
     4  O    1.505614   2.172682   3.053954   0.000000
     5  O    3.012706   4.056766   4.784813   1.941265   0.000000
     6  O    3.665351   2.366345   1.228504   4.076506   5.854517
     7  H    3.421873   4.369599   5.261278   2.232033   0.975660
     8  H    1.091969   2.177495   2.747363   2.124399   3.116305
     9  H    1.088107   2.174146   3.460976   2.065819   3.245809
    10  H    2.694951   2.173839   1.113699   3.219310   4.629555
    11  H    2.045368   2.481252   2.882951   0.979534   2.026744
    12  H    2.200942   1.085627   2.182107   2.688905   4.605982
                    6          7          8          9         10
     6  O    0.000000
     7  H    6.256755   0.000000
     8  H    3.968685   3.772060   0.000000
     9  H    4.516025   3.449888   1.803767   0.000000
    10  H    2.029145   5.282120   2.470816   3.729680   0.000000
    11  H    3.881649   2.560065   2.291008   2.866397   2.815242
    12  H    2.655633   4.705678   3.127859   2.526899   3.132442
                   11         12
    11  H    0.000000
    12  H    3.177298   0.000000
 Symmetry turned off by external request.
 Stoichiometry    C3H6O3
 Framework group  C1[X(C3H6O3)]
 Deg. of freedom    30
 Full point group                 C1      NOp   1
 Rotational constants (GHZ):          10.4937313           1.3500904           1.2725450
 Standard basis: 6-31+G(d) (6D, 7F)
   126 basis functions,   216 primitive gaussians,   126 cartesian basis functions
    24 alpha electrons       24 beta electrons
       nuclear repulsion energy       223.1653628485 Hartrees.
 NAtoms=   12 NActive=   12 NUniq=   12 SFac= 1.00D+00 NAtFMM=   60 NAOKFM=F Big=F
 Integral buffers will be    131072 words long.
 Raffenetti 2 integral format.
 Two-electron integral symmetry is turned off.
 One-electron integrals computed using PRISM.
 NBasis=   126 RedAO= T EigKep=  9.89D-05  NBF=   126
 NBsUse=   126 1.00D-06 EigRej= -1.00D+00 NBFU=   126
 Initial guess from the checkpoint file:  "/scratch/bell/zhao922/YARP/paper-example/KHP-network/pp_0/IRC-folder/Gau-72613.chk"
 B after Tr=    -0.065909   -0.036799   -0.017418
         Rot=    1.000000   -0.000177   -0.000033    0.000003 Ang=  -0.02 deg.
 ExpMin= 4.38D-02 ExpMax= 5.48D+03 ExpMxC= 8.25D+02 IAcc=3 IRadAn=         5 AccDes= 0.00D+00
 Harris functional with IExCor=  402 and IRadAn=       5 diagonalized for initial guess.
 HarFok:  IExCor=  402 AccDes= 0.00D+00 IRadAn=         5 IDoV= 1 UseB2=F ITyADJ=14
 ICtDFT=  3500011 ScaDFX=  1.000000  1.000000  1.000000  1.000000
 FoFCou: FMM=F IPFlag=           0 FMFlag=      100000 FMFlg1=           0
         NFxFlg=           0 DoJE=T BraDBF=F KetDBF=T FulRan=T
         wScrn=  0.000000 ICntrl=       500 IOpCl=  0 I1Cent=   200000004 NGrid=           0
         NMat0=    1 NMatS0=      1 NMatT0=    0 NMatD0=    1 NMtDS0=    0 NMtDT0=    0
 Symmetry not used in FoFCou.
 Keep R1 ints in memory in canonical form, NReq=47237243.
 Requested convergence on RMS density matrix=1.00D-08 within 128 cycles.
 Requested convergence on MAX density matrix=1.00D-06.
 Requested convergence on             energy=1.00D-06.
 No special actions if energy rises.
 SCF Done:  E(RB3LYP) =  -343.423705757     A.U. after   13 cycles
            NFock= 13  Conv=0.56D-08     -V/T= 2.0093
 DoSCS=F DFT=T ScalE2(SS,OS)=  1.000000  1.000000
 Range of M.O.s used for correlation:     1   126
 NBasis=   126 NAE=    24 NBE=    24 NFC=     0 NFV=     0
 NROrb=    126 NOA=    24 NOB=    24 NVA=   102 NVB=   102

 **** Warning!!: The largest alpha MO coefficient is  0.30397008D+02


 **** Warning!!: The smallest alpha delta epsilon is  0.88146527D-01

 Symmetrizing basis deriv contribution to polar:
 IMax=3 JMax=2 DiffMx= 0.00D+00
 G2DrvN: will do    13 centers at a time, making    1 passes.
 Calling FoFCou, ICntrl=  3107 FMM=F I1Cent=   0 AccDes= 0.00D+00.
 End of G2Drv F.D. properties file   721 does not exist.
 End of G2Drv F.D. properties file   722 does not exist.
 End of G2Drv F.D. properties file   788 does not exist.
          IDoAtm=111111111111
          Differentiating once with respect to nuclear coordinates.
 Keep R1 ints in memory in canonical form, NReq=47193265.
          There are    39 degrees of freedom in the 1st order CPHF.  IDoFFX=6 NUNeed=     0.
     33 vectors produced by pass  0 Test12= 6.28D-15 2.56D-09 XBig12= 1.77D-01 2.19D-01.
 AX will form    33 AO Fock derivatives at one time.
     33 vectors produced by pass  1 Test12= 6.28D-15 2.56D-09 XBig12= 1.32D-01 8.14D-02.
     33 vectors produced by pass  2 Test12= 6.28D-15 2.56D-09 XBig12= 1.02D-03 6.28D-03.
     33 vectors produced by pass  3 Test12= 6.28D-15 2.56D-09 XBig12= 4.88D-06 3.99D-04.
     33 vectors produced by pass  4 Test12= 6.28D-15 2.56D-09 XBig12= 8.59D-09 1.16D-05.
     31 vectors produced by pass  5 Test12= 6.28D-15 2.56D-09 XBig12= 1.02D-11 5.05D-07.
      5 vectors produced by pass  6 Test12= 6.28D-15 2.56D-09 XBig12= 8.45D-15 1.11D-08.
 InvSVY:  IOpt=1 It=  1 EMax= 2.55D-15
 Solved reduced A of dimension   201 with    33 vectors.
 End of Minotr F.D. properties file   721 does not exist.
 End of Minotr F.D. properties file   722 does not exist.
 End of Minotr F.D. properties file   788 does not exist.
 Calling FoFJK, ICntrl=    100127 FMM=F ISym2X=0 I1Cent= 0 IOpClX= 0 NMat=1 NMatS=1 NMatT=0.
 -------------------------------------------------------------------
 Center     Atomic                   Forces (Hartrees/Bohr)
 Number     Number              X              Y              Z
 -------------------------------------------------------------------
      1        6           0.000312690   -0.000371398   -0.000024286
      2        6          -0.000130440   -0.000079611    0.000055665
      3        6           0.000187237   -0.000134821   -0.000008649
      4        8          -0.000080045    0.003328182   -0.001966998
      5        8           0.000334262   -0.000218219    0.000580535
      6        8           0.000006877    0.000040057   -0.000016536
      7        1           0.000179488   -0.000009280   -0.000236786
      8        1           0.000024409    0.000030200    0.000017779
      9        1           0.000039197   -0.000015186   -0.000021155
     10        1           0.000017616   -0.000043850    0.000008483
     11        1          -0.000886021   -0.002533381    0.001597184
     12        1          -0.000005271    0.000007307    0.000014763
 -------------------------------------------------------------------
 Cartesian Forces:  Max     0.003328182 RMS     0.000843533
 IRC-IRC-IRC-IRC-IRC-IRC-IRC-IRC-IRC-IRC-IRC-IRC-IRC-IRC-IRC-IRC-IRC-IRC
 Pt  1 Step number   1 out of a maximum of 100
 Modified Bulirsch-Stoer Extrapolation Cycles:
    EPS =    0.000010000000000
      PEZero:  N= 2 I= 1 D=  6.55D-04 Err=  2.62D-02
      PEZero:  N= 3 I= 2 D=  6.55D-04 Err=  3.84D-02
      PEZero:  N= 3 I= 1 D=  1.31D-03 Err=  3.13D-02
      PEZero:  N= 4 I= 3 D=  3.28D-04 Err=  5.50D-02
      PEZero:  N= 4 I= 2 D=  9.83D-04 Err=  3.50D-02
      PEZero:  N= 4 I= 1 D=  1.64D-03 Err=  2.32D-02
      PEZero:  N= 5 I= 4 D=  3.28D-04 Err=  1.05D-02
      PEZero:  N= 5 I= 3 D=  6.55D-04 Err=  3.93D-02
      PEZero:  N= 6 I= 5 D=  1.64D-04 Err=  3.08D-04
      PEZero:  N= 6 I= 4 D=  4.92D-04 Err=  1.01D-02
      PEZero:  N= 7 I= 6 D=  1.64D-04 Err=  2.02D-04
      PEZero:  N= 7 I= 5 D=  3.28D-04 Err=  5.45D-06
      PEZero:  N= 7 I= 4 D=  6.55D-04 Err=  1.75D-02
 Maximum DWI energy   std dev =  0.000005002 at pt     1
 Maximum DWI gradient std dev =  0.968331274 at pt    39
 CORRECTOR INTEGRATION CONVERGENCE:
   Recorrection delta-x convergence threshold:    0.010000
   Delta-x Convergence NOT Met
 IRC-IRC-IRC-IRC-IRC-IRC-IRC-IRC-IRC-IRC-IRC-IRC-IRC-IRC-IRC-IRC-IRC-IRC
                          Input orientation:                          
 ---------------------------------------------------------------------
 Center     Atomic      Atomic             Coordinates (Angstroms)
 Number     Number       Type             X           Y           Z
 ---------------------------------------------------------------------
      1          6           0       -0.444105   -0.998330   -0.354306
      2          6           0        0.824312   -0.682545    0.268364
      3          6           0        1.755996    0.238676   -0.342579
      4          8           0       -1.209023    0.075937    0.373860
      5          8           0       -3.013828    0.561668   -0.147647
      6          8           0        2.832682    0.563617    0.151585
      7          1           0       -3.393293    0.358511    0.727568
      8          1           0       -0.532441   -0.823051   -1.428452
      9          1           0       -0.929446   -1.925679   -0.057039
     10          1           0        1.459189    0.634528   -1.340272
     11          1           0       -1.032792    0.937797   -0.049294
     12          1           0        1.056366   -1.074351    1.253880
 ---------------------------------------------------------------------
                    Distance matrix (angstroms):
                    1          2          3          4          5
     1  C    0.000000
     2  C    1.447868   0.000000
     3  C    2.524038   1.445661   0.000000
     4  O    1.506445   2.172758   3.054687   0.000000
     5  O    3.013267   4.056162   4.784721   1.940419   0.000000
     6  O    3.665097   2.366455   1.228429   4.077085   5.854163
     7  H    3.421868   4.368393   5.260680   2.230693   0.975329
     8  H    1.091931   2.177086   2.746512   2.124681   3.116921
     9  H    1.088072   2.174152   3.460863   2.066471   3.246499
    10  H    2.694602   2.173812   1.113636   3.220190   4.629854
    11  H    2.046502   2.485005   2.890004   0.976176   2.018824
    12  H    2.200785   1.085634   2.182248   2.688789   4.605140
                    6          7          8          9         10
     6  O    0.000000
     7  H    6.255924   0.000000
     8  H    3.967798   3.772133   0.000000
     9  H    4.515942   3.450170   1.803934   0.000000
    10  H    2.029076   5.281924   2.469595   3.729199   0.000000
    11  H    3.888734   2.551676   2.291945   2.865351   2.822864
    12  H    2.655804   4.704207   3.127677   2.527196   3.132436
                   11         12
    11  H    0.000000
    12  H    3.179872   0.000000
 Symmetry turned off by external request.
 Stoichiometry    C3H6O3
 Framework group  C1[X(C3H6O3)]
 Deg. of freedom    30
 Full point group                 C1      NOp   1
 Rotational constants (GHZ):          10.4917295           1.3500947           1.2725515
 Standard basis: 6-31+G(d) (6D, 7F)
   126 basis functions,   216 primitive gaussians,   126 cartesian basis functions
    24 alpha electrons       24 beta electrons
       nuclear repulsion energy       223.1815830200 Hartrees.
 NAtoms=   12 NActive=   12 NUniq=   12 SFac= 1.00D+00 NAtFMM=   60 NAOKFM=F Big=F
 Integral buffers will be    131072 words long.
 Raffenetti 2 integral format.
 Two-electron integral symmetry is turned off.
 One-electron integrals computed using PRISM.
 NBasis=   126 RedAO= T EigKep=  9.89D-05  NBF=   126
 NBsUse=   126 1.00D-06 EigRej= -1.00D+00 NBFU=   126
 Initial guess from the checkpoint file:  "/scratch/bell/zhao922/YARP/paper-example/KHP-network/pp_0/IRC-folder/Gau-72613.chk"
 B after Tr=    -0.000096   -0.000039    0.000008
         Rot=    1.000000   -0.000045    0.000014   -0.000004 Ang=  -0.01 deg.
 ExpMin= 4.38D-02 ExpMax= 5.48D+03 ExpMxC= 8.25D+02 IAcc=3 IRadAn=         5 AccDes= 0.00D+00
 Harris functional with IExCor=  402 and IRadAn=       5 diagonalized for initial guess.
 HarFok:  IExCor=  402 AccDes= 0.00D+00 IRadAn=         5 IDoV= 1 UseB2=F ITyADJ=14
 ICtDFT=  3500011 ScaDFX=  1.000000  1.000000  1.000000  1.000000
 FoFCou: FMM=F IPFlag=           0 FMFlag=      100000 FMFlg1=           0
         NFxFlg=           0 DoJE=T BraDBF=F KetDBF=T FulRan=T
         wScrn=  0.000000 ICntrl=       500 IOpCl=  0 I1Cent=   200000004 NGrid=           0
         NMat0=    1 NMatS0=      1 NMatT0=    0 NMatD0=    1 NMtDS0=    0 NMtDT0=    0
 Symmetry not used in FoFCou.
 Keep R1 ints in memory in canonical form, NReq=47237243.
 Requested convergence on RMS density matrix=1.00D-08 within 128 cycles.
 Requested convergence on MAX density matrix=1.00D-06.
 Requested convergence on             energy=1.00D-06.
 No special actions if energy rises.
 EnCoef did     5 forward-backward iterations
 SCF Done:  E(RB3LYP) =  -343.423719252     A.U. after   11 cycles
            NFock= 11  Conv=0.72D-08     -V/T= 2.0093
 DoSCS=F DFT=T ScalE2(SS,OS)=  1.000000  1.000000
 Range of M.O.s used for correlation:     1   126
 NBasis=   126 NAE=    24 NBE=    24 NFC=     0 NFV=     0
 NROrb=    126 NOA=    24 NOB=    24 NVA=   102 NVB=   102

 **** Warning!!: The largest alpha MO coefficient is  0.30433391D+02


 **** Warning!!: The smallest alpha delta epsilon is  0.88234563D-01

 Symmetrizing basis deriv contribution to polar:
 IMax=3 JMax=2 DiffMx= 0.00D+00
 Calling FoFJK, ICntrl=      2127 FMM=F ISym2X=0 I1Cent= 0 IOpClX= 0 NMat=1 NMatS=1 NMatT=0.
 -------------------------------------------------------------------
 Center     Atomic                   Forces (Hartrees/Bohr)
 Number     Number              X              Y              Z
 -------------------------------------------------------------------
      1        6           0.000168741    0.000013443   -0.000033751
      2        6           0.000006702    0.000006174    0.000072321
      3        6           0.000092303   -0.000147260    0.000005793
      4        8          -0.000667501    0.000252372   -0.000440356
      5        8           0.000234608   -0.000126733    0.000332302
      6        8           0.000053534    0.000038148    0.000016571
      7        1           0.000019760   -0.000061868    0.000009580
      8        1           0.000023036   -0.000000217   -0.000003281
      9        1          -0.000000293    0.000010533    0.000001551
     10        1           0.000015172   -0.000031896   -0.000010362
     11        1           0.000062285    0.000038498    0.000038251
     12        1          -0.000008349    0.000008806    0.000011381
 -------------------------------------------------------------------
 Cartesian Forces:  Max     0.000667501 RMS     0.000163983
 IRC-IRC-IRC-IRC-IRC-IRC-IRC-IRC-IRC-IRC-IRC-IRC-IRC-IRC-IRC-IRC-IRC-IRC
 Error in corrector energy =          -0.0000000118
 Magnitude of corrector gradient =     0.0010055516
 Magnitude of analytic gradient =      0.0009838965
 Magnitude of difference =             0.0000309827
 Angle between gradients (degrees)=    1.2764
 Pt  1 Step number   2 out of a maximum of 100
 Modified Bulirsch-Stoer Extrapolation Cycles:
    EPS =    0.000010000000000
      PEZero:  N= 2 I= 1 D=  6.55D-04 Err=  2.17D-02
      PEZero:  N= 3 I= 2 D=  6.55D-04 Err=  2.94D-02
      PEZero:  N= 3 I= 1 D=  1.31D-03 Err=  2.25D-02
      PEZero:  N= 4 I= 3 D=  3.28D-04 Err=  4.66D-02
      PEZero:  N= 4 I= 2 D=  9.83D-04 Err=  3.27D-02
      PEZero:  N= 4 I= 1 D=  1.64D-03 Err=  2.57D-02
      PEZero:  N= 5 I= 4 D=  3.28D-04 Err=  3.43D-02
      PEZero:  N= 5 I= 3 D=  6.55D-04 Err=  4.96D-03
      PEZero:  N= 5 I= 2 D=  1.31D-03 Err=  1.14D-02
      PEZero:  N= 6 I= 5 D=  1.64D-04 Err=  4.91D-04
      PEZero:  N= 6 I= 4 D=  4.92D-04 Err=  3.37D-02
      PEZero:  N= 7 I= 6 D=  1.64D-04 Err=  2.56D-04
      PEZero:  N= 7 I= 5 D=  3.28D-04 Err=  1.06D-04
      PEZero:  N= 7 I= 4 D=  6.55D-04 Err=  2.58D-03
      PEZero:  N= 8 I= 7 D=  8.19D-05 Err=  1.88D-04
      PEZero:  N= 8 I= 6 D=  2.46D-04 Err=  5.17D-06
      PEZero:  N= 8 I= 5 D=  4.10D-04 Err=  5.75D-05
 Maximum DWI energy   std dev =  0.000001197 at pt    14
 Maximum DWI gradient std dev =  1.667535658 at pt    21
 CORRECTOR INTEGRATION CONVERGENCE:
   Recorrection delta-x convergence threshold:    0.010000
   Delta-x Convergence NOT Met
 IRC-IRC-IRC-IRC-IRC-IRC-IRC-IRC-IRC-IRC-IRC-IRC-IRC-IRC-IRC-IRC-IRC-IRC
                          Input orientation:                          
 ---------------------------------------------------------------------
 Center     Atomic      Atomic             Coordinates (Angstroms)
 Number     Number       Type             X           Y           Z
 ---------------------------------------------------------------------
      1          6           0       -0.443949   -0.998463   -0.354425
      2          6           0        0.824177   -0.682103    0.268584
      3          6           0        1.756257    0.238524   -0.342693
      4          8           0       -1.208820    0.076042    0.373292
      5          8           0       -3.014486    0.561557   -0.147160
      6          8           0        2.832799    0.563584    0.151680
      7          1           0       -3.393112    0.358927    0.728523
      8          1           0       -0.531849   -0.823629   -1.428678
      9          1           0       -0.929230   -1.925797   -0.056997
     10          1           0        1.459924    0.633671   -1.340799
     11          1           0       -1.035193    0.937406   -0.051666
     12          1           0        1.055772   -1.073174    1.254505
 ---------------------------------------------------------------------
                    Distance matrix (angstroms):
                    1          2          3          4          5
     1  C    0.000000
     2  C    1.447883   0.000000
     3  C    2.524119   1.445679   0.000000
     4  O    1.506373   2.172285   3.054622   0.000000
     5  O    3.014014   4.056460   4.785663   1.940882   0.000000
     6  O    3.665134   2.366425   1.228419   4.076947   5.854917
     7  H    3.422404   4.368158   5.260988   2.230996   0.975314
     8  H    1.091930   2.177047   2.746444   2.124804   3.118416
     9  H    1.088077   2.174215   3.460888   2.066562   3.247052
    10  H    2.694722   2.173834   1.113629   3.220443   4.631449
    11  H    2.046661   2.486489   2.892287   0.976055   2.016924
    12  H    2.200773   1.085639   2.182263   2.688049   4.604781
                    6          7          8          9         10
     6  O    0.000000
     7  H    6.255925   0.000000
     8  H    3.967713   3.773431   0.000000
     9  H    4.515908   3.450756   1.803939   0.000000
    10  H    2.029086   5.282948   2.469535   3.729220   0.000000
    11  H    3.891331   2.550120   2.291454   2.865168   2.824841
    12  H    2.655753   4.703205   3.127664   2.527298   3.132453
                   11         12
    11  H    0.000000
    12  H    3.181297   0.000000
 Symmetry turned off by external request.
 Stoichiometry    C3H6O3
 Framework group  C1[X(C3H6O3)]
 Deg. of freedom    30
 Full point group                 C1      NOp   1
 Rotational constants (GHZ):          10.4938603           1.3498214           1.2723369
 Standard basis: 6-31+G(d) (6D, 7F)
   126 basis functions,   216 primitive gaussians,   126 cartesian basis functions
    24 alpha electrons       24 beta electrons
       nuclear repulsion energy       223.1751623462 Hartrees.
 NAtoms=   12 NActive=   12 NUniq=   12 SFac= 1.00D+00 NAtFMM=   60 NAOKFM=F Big=F
 Integral buffers will be    131072 words long.
 Raffenetti 2 integral format.
 Two-electron integral symmetry is turned off.
 One-electron integrals computed using PRISM.
 NBasis=   126 RedAO= T EigKep=  9.89D-05  NBF=   126
 NBsUse=   126 1.00D-06 EigRej= -1.00D+00 NBFU=   126
 Initial guess from the checkpoint file:  "/scratch/bell/zhao922/YARP/paper-example/KHP-network/pp_0/IRC-folder/Gau-72613.chk"
 B after Tr=    -0.000091    0.000016   -0.000067
         Rot=    1.000000    0.000105   -0.000007   -0.000013 Ang=   0.01 deg.
 ExpMin= 4.38D-02 ExpMax= 5.48D+03 ExpMxC= 8.25D+02 IAcc=3 IRadAn=         5 AccDes= 0.00D+00
 Harris functional with IExCor=  402 and IRadAn=       5 diagonalized for initial guess.
 HarFok:  IExCor=  402 AccDes= 0.00D+00 IRadAn=         5 IDoV= 1 UseB2=F ITyADJ=14
 ICtDFT=  3500011 ScaDFX=  1.000000  1.000000  1.000000  1.000000
 FoFCou: FMM=F IPFlag=           0 FMFlag=      100000 FMFlg1=           0
         NFxFlg=           0 DoJE=T BraDBF=F KetDBF=T FulRan=T
         wScrn=  0.000000 ICntrl=       500 IOpCl=  0 I1Cent=   200000004 NGrid=           0
         NMat0=    1 NMatS0=      1 NMatT0=    0 NMatD0=    1 NMtDS0=    0 NMtDT0=    0
 Symmetry not used in FoFCou.
 Keep R1 ints in memory in canonical form, NReq=47237243.
 Requested convergence on RMS density matrix=1.00D-08 within 128 cycles.
 Requested convergence on MAX density matrix=1.00D-06.
 Requested convergence on             energy=1.00D-06.
 No special actions if energy rises.
 SCF Done:  E(RB3LYP) =  -343.423719266     A.U. after   10 cycles
            NFock= 10  Conv=0.64D-08     -V/T= 2.0093
 DoSCS=F DFT=T ScalE2(SS,OS)=  1.000000  1.000000
 Range of M.O.s used for correlation:     1   126
 NBasis=   126 NAE=    24 NBE=    24 NFC=     0 NFV=     0
 NROrb=    126 NOA=    24 NOB=    24 NVA=   102 NVB=   102

 **** Warning!!: The largest alpha MO coefficient is  0.30454926D+02


 **** Warning!!: The smallest alpha delta epsilon is  0.88233115D-01

 Symmetrizing basis deriv contribution to polar:
 IMax=3 JMax=2 DiffMx= 0.00D+00
 Calling FoFJK, ICntrl=      2127 FMM=F ISym2X=0 I1Cent= 0 IOpClX= 0 NMat=1 NMatS=1 NMatT=0.
 -------------------------------------------------------------------
 Center     Atomic                   Forces (Hartrees/Bohr)
 Number     Number              X              Y              Z
 -------------------------------------------------------------------
      1        6           0.000157572    0.000022718   -0.000025852
      2        6           0.000014429    0.000005462    0.000061732
      3        6           0.000086863   -0.000135142    0.000003734
      4        8          -0.000676391    0.000127603   -0.000367688
      5        8           0.000200190   -0.000124398    0.000308234
      6        8           0.000050557    0.000036404    0.000016307
      7        1           0.000014400   -0.000060386    0.000013680
      8        1           0.000019453   -0.000001920   -0.000001745
      9        1          -0.000002402    0.000013932    0.000003985
     10        1           0.000015710   -0.000031135   -0.000006152
     11        1           0.000127175    0.000137137   -0.000014301
     12        1          -0.000007554    0.000009724    0.000008067
 -------------------------------------------------------------------
 Cartesian Forces:  Max     0.000676391 RMS     0.000154638
 IRC-IRC-IRC-IRC-IRC-IRC-IRC-IRC-IRC-IRC-IRC-IRC-IRC-IRC-IRC-IRC-IRC-IRC
 Error in corrector energy =          -0.0000000417
 Magnitude of corrector gradient =     0.0009347893
 Magnitude of analytic gradient =      0.0009278305
 Magnitude of difference =             0.0001847454
 Angle between gradients (degrees)=   11.3765
 Pt  1 Step number   3 out of a maximum of 100
 Modified Bulirsch-Stoer Extrapolation Cycles:
    EPS =    0.000010000000000
      PEZero:  N= 2 I= 1 D=  6.55D-04 Err=  2.17D-02
      PEZero:  N= 3 I= 2 D=  6.55D-04 Err=  3.03D-02
      PEZero:  N= 3 I= 1 D=  1.31D-03 Err=  2.38D-02
      PEZero:  N= 4 I= 3 D=  3.28D-04 Err=  4.73D-02
      PEZero:  N= 4 I= 2 D=  9.83D-04 Err=  3.27D-02
      PEZero:  N= 4 I= 1 D=  1.64D-03 Err=  2.50D-02
      PEZero:  N= 5 I= 4 D=  3.28D-04 Err=  3.45D-02
      PEZero:  N= 5 I= 3 D=  6.55D-04 Err=  4.48D-03
      PEZero:  N= 5 I= 2 D=  1.31D-03 Err=  1.19D-02
      PEZero:  N= 6 I= 5 D=  1.64D-04 Err=  5.05D-04
      PEZero:  N= 6 I= 4 D=  4.92D-04 Err=  3.38D-02
      PEZero:  N= 7 I= 6 D=  1.64D-04 Err=  2.58D-04
      PEZero:  N= 7 I= 5 D=  3.28D-04 Err=  1.19D-04
      PEZero:  N= 7 I= 4 D=  6.55D-04 Err=  2.36D-03
      PEZero:  N= 8 I= 7 D=  8.19D-05 Err=  1.90D-04
      PEZero:  N= 8 I= 6 D=  2.46D-04 Err=  4.24D-06
      PEZero:  N= 8 I= 5 D=  4.10D-04 Err=  6.63D-05
 Maximum DWI energy   std dev =  0.000001252 at pt     1
 Maximum DWI gradient std dev =  1.638333937 at pt    19
 CORRECTOR INTEGRATION CONVERGENCE:
   Recorrection delta-x convergence threshold:    0.010000
   Delta-x Convergence Met
 Point Number:   1          Path Number:   1
   CHANGE IN THE REACTION COORDINATE =    0.24935
   NET REACTION COORDINATE UP TO THIS POINT =    0.24935
  # OF POINTS ALONG THE PATH =   1
  # OF STEPS =   3

 Calculating another point on the path.
 IRC-IRC-IRC-IRC-IRC-IRC-IRC-IRC-IRC-IRC-IRC-IRC-IRC-IRC-IRC-IRC-IRC-IRC
                          Input orientation:                          
 ---------------------------------------------------------------------
 Center     Atomic      Atomic             Coordinates (Angstroms)
 Number     Number       Type             X           Y           Z
 ---------------------------------------------------------------------
      1          6           0       -0.436934   -0.998263   -0.356269
      2          6           0        0.824307   -0.680935    0.271518
      3          6           0        1.760760    0.232475   -0.342643
      4          8           0       -1.228219    0.083925    0.358573
      5          8           0       -3.009749    0.557881   -0.136056
      6          8           0        2.834823    0.564375    0.153018
      7          1           0       -3.383804    0.331405    0.736267
      8          1           0       -0.519976   -0.825412   -1.431169
      9          1           0       -0.928893   -1.921079   -0.056118
     10          1           0        1.469384    0.617371   -1.346781
     11          1           0       -1.002312    0.948901   -0.037017
     12          1           0        1.050546   -1.066446    1.260908
 ---------------------------------------------------------------------
                    Distance matrix (angstroms):
                    1          2          3          4          5
     1  C    0.000000
     2  C    1.444140   0.000000
     3  C    2.518880   1.445149   0.000000
     4  O    1.519296   2.192134   3.073722   0.000000
     5  O    3.014872   4.049786   4.786055   1.908701   0.000000
     6  O    3.661366   2.367913   1.228596   4.096510   5.851720
     7  H    3.412579   4.353047   5.257411   2.202373   0.975784
     8  H    1.091872   2.174193   2.739666   2.128774   3.128863
     9  H    1.087982   2.172329   3.457474   2.069205   3.237529
    10  H    2.688017   2.172698   1.114153   3.235716   4.640261
    11  H    2.052565   2.467407   2.870756   0.977604   2.047562
    12  H    2.198296   1.085678   2.182424   2.707459   4.590854
                    6          7          8          9         10
     6  O    0.000000
     7  H    6.250262   0.000000
     8  H    3.961796   3.773263   0.000000
     9  H    4.515172   3.424639   1.805122   0.000000
    10  H    2.028948   5.289073   2.458922   3.723073   0.000000
    11  H    3.861034   2.578909   2.307487   2.870983   2.816855
    12  H    2.659068   4.678964   3.126007   2.526487   3.132205
                   11         12
    11  H    0.000000
    12  H    3.156020   0.000000
 Symmetry turned off by external request.
 Stoichiometry    C3H6O3
 Framework group  C1[X(C3H6O3)]
 Deg. of freedom    30
 Full point group                 C1      NOp   1
 Rotational constants (GHZ):          10.5520680           1.3486480           1.2712176
 Standard basis: 6-31+G(d) (6D, 7F)
   126 basis functions,   216 primitive gaussians,   126 cartesian basis functions
    24 alpha electrons       24 beta electrons
       nuclear repulsion energy       223.1920006270 Hartrees.
 NAtoms=   12 NActive=   12 NUniq=   12 SFac= 1.00D+00 NAtFMM=   60 NAOKFM=F Big=F
 Integral buffers will be    131072 words long.
 Raffenetti 2 integral format.
 Two-electron integral symmetry is turned off.
 One-electron integrals computed using PRISM.
 NBasis=   126 RedAO= T EigKep=  9.86D-05  NBF=   126
 NBsUse=   126 1.00D-06 EigRej= -1.00D+00 NBFU=   126
 Initial guess from the checkpoint file:  "/scratch/bell/zhao922/YARP/paper-example/KHP-network/pp_0/IRC-folder/Gau-72613.chk"
 B after Tr=     0.001077   -0.000418    0.000384
         Rot=    1.000000    0.000035   -0.000005   -0.000034 Ang=   0.01 deg.
 ExpMin= 4.38D-02 ExpMax= 5.48D+03 ExpMxC= 8.25D+02 IAcc=3 IRadAn=         5 AccDes= 0.00D+00
 Harris functional with IExCor=  402 and IRadAn=       5 diagonalized for initial guess.
 HarFok:  IExCor=  402 AccDes= 0.00D+00 IRadAn=         5 IDoV= 1 UseB2=F ITyADJ=14
 ICtDFT=  3500011 ScaDFX=  1.000000  1.000000  1.000000  1.000000
 FoFCou: FMM=F IPFlag=           0 FMFlag=      100000 FMFlg1=           0
         NFxFlg=           0 DoJE=T BraDBF=F KetDBF=T FulRan=T
         wScrn=  0.000000 ICntrl=       500 IOpCl=  0 I1Cent=   200000004 NGrid=           0
         NMat0=    1 NMatS0=      1 NMatT0=    0 NMatD0=    1 NMtDS0=    0 NMtDT0=    0
 Symmetry not used in FoFCou.
 Keep R1 ints in memory in canonical form, NReq=47237243.
 Requested convergence on RMS density matrix=1.00D-08 within 128 cycles.
 Requested convergence on MAX density matrix=1.00D-06.
 Requested convergence on             energy=1.00D-06.
 No special actions if energy rises.
 SCF Done:  E(RB3LYP) =  -343.423798900     A.U. after   13 cycles
            NFock= 13  Conv=0.41D-08     -V/T= 2.0093
 DoSCS=F DFT=T ScalE2(SS,OS)=  1.000000  1.000000
 Range of M.O.s used for correlation:     1   126
 NBasis=   126 NAE=    24 NBE=    24 NFC=     0 NFV=     0
 NROrb=    126 NOA=    24 NOB=    24 NVA=   102 NVB=   102

 **** Warning!!: The largest alpha MO coefficient is  0.30605994D+02


 **** Warning!!: The smallest alpha delta epsilon is  0.90239832D-01

 Symmetrizing basis deriv contribution to polar:
 IMax=3 JMax=2 DiffMx= 0.00D+00
 G2DrvN: will do    13 centers at a time, making    1 passes.
 Calling FoFCou, ICntrl=  3107 FMM=F I1Cent=   0 AccDes= 0.00D+00.
 End of G2Drv F.D. properties file   721 does not exist.
 End of G2Drv F.D. properties file   722 does not exist.
 End of G2Drv F.D. properties file   788 does not exist.
          IDoAtm=111111111111
          Differentiating once with respect to nuclear coordinates.
 Keep R1 ints in memory in canonical form, NReq=47193265.
          There are    39 degrees of freedom in the 1st order CPHF.  IDoFFX=6 NUNeed=     0.
     33 vectors produced by pass  0 Test12= 6.28D-15 2.56D-09 XBig12= 1.79D-01 2.15D-01.
 AX will form    33 AO Fock derivatives at one time.
     33 vectors produced by pass  1 Test12= 6.28D-15 2.56D-09 XBig12= 1.22D-01 7.75D-02.
     33 vectors produced by pass  2 Test12= 6.28D-15 2.56D-09 XBig12= 1.01D-03 6.09D-03.
     33 vectors produced by pass  3 Test12= 6.28D-15 2.56D-09 XBig12= 4.87D-06 4.17D-04.
     33 vectors produced by pass  4 Test12= 6.28D-15 2.56D-09 XBig12= 8.42D-09 1.17D-05.
     31 vectors produced by pass  5 Test12= 6.28D-15 2.56D-09 XBig12= 9.76D-12 5.79D-07.
      5 vectors produced by pass  6 Test12= 6.28D-15 2.56D-09 XBig12= 8.10D-15 1.08D-08.
 InvSVY:  IOpt=1 It=  1 EMax= 1.78D-15
 Solved reduced A of dimension   201 with    33 vectors.
 End of Minotr F.D. properties file   721 does not exist.
 End of Minotr F.D. properties file   722 does not exist.
 End of Minotr F.D. properties file   788 does not exist.
 Calling FoFJK, ICntrl=    100127 FMM=F ISym2X=0 I1Cent= 0 IOpClX= 0 NMat=1 NMatS=1 NMatT=0.
 -------------------------------------------------------------------
 Center     Atomic                   Forces (Hartrees/Bohr)
 Number     Number              X              Y              Z
 -------------------------------------------------------------------
      1        6           0.000461101   -0.000390522   -0.000101331
      2        6          -0.000112192    0.000038027    0.000048598
      3        6           0.000207028   -0.000124279   -0.000023105
      4        8          -0.000573197    0.001505247   -0.001065280
      5        8           0.000075791   -0.000182821    0.000667155
      6        8           0.000023469    0.000019846    0.000005822
      7        1           0.000137915    0.000013768   -0.000234371
      8        1           0.000018026    0.000013121    0.000023620
      9        1           0.000010487    0.000016582   -0.000005679
     10        1           0.000039158   -0.000066265    0.000036661
     11        1          -0.000269703   -0.000878953    0.000654125
     12        1          -0.000017882    0.000036249   -0.000006216
 -------------------------------------------------------------------
 Cartesian Forces:  Max     0.001505247 RMS     0.000409021
 IRC-IRC-IRC-IRC-IRC-IRC-IRC-IRC-IRC-IRC-IRC-IRC-IRC-IRC-IRC-IRC-IRC-IRC
 Pt  2 Step number   1 out of a maximum of 100
 Modified Bulirsch-Stoer Extrapolation Cycles:
    EPS =    0.000010000000000
      PEZero:  N= 2 I= 1 D=  1.31D-03 Err=  2.49D-02
      PEZero:  N= 3 I= 2 D=  1.31D-03 Err=  3.97D-02
      PEZero:  N= 3 I= 1 D=  2.61D-03 Err=  3.46D-02
      PEZero:  N= 4 I= 3 D=  6.53D-04 Err=  7.02D-02
      PEZero:  N= 4 I= 2 D=  1.96D-03 Err=  5.39D-02
      PEZero:  N= 4 I= 1 D=  3.27D-03 Err=  4.39D-02
      PEZero:  N= 5 I= 4 D=  6.53D-04 Err=  9.93D-02
      PEZero:  N= 5 I= 3 D=  1.31D-03 Err=  7.88D-02
      PEZero:  N= 5 I= 2 D=  2.61D-03 Err=  5.19D-02
      PEZero:  N= 5 I= 1 D=  3.92D-03 Err=  3.72D-02
      PEZero:  N= 6 I= 5 D=  3.27D-04 Err=  4.25D-02
      PEZero:  N= 6 I= 4 D=  9.80D-04 Err=  4.26D-02
      PEZero:  N= 7 I= 6 D=  3.27D-04 Err=  1.18D-05
      PEZero:  N= 7 I= 5 D=  6.53D-04 Err=  4.25D-02
      PEZero:  N= 8 I= 7 D=  1.63D-04 Err=  8.98D-06
      PEZero:  N= 8 I= 6 D=  4.90D-04 Err=  6.89D-07
      PEZero:  N= 8 I= 5 D=  8.17D-04 Err=  4.73D-02
 Maximum DWI energy   std dev =  0.000002201 at pt   156
 Maximum DWI gradient std dev =  0.512110858 at pt   145
 CORRECTOR INTEGRATION CONVERGENCE:
   Recorrection delta-x convergence threshold:    0.010000
   Delta-x Convergence NOT Met
 IRC-IRC-IRC-IRC-IRC-IRC-IRC-IRC-IRC-IRC-IRC-IRC-IRC-IRC-IRC-IRC-IRC-IRC
                          Input orientation:                          
 ---------------------------------------------------------------------
 Center     Atomic      Atomic             Coordinates (Angstroms)
 Number     Number       Type             X           Y           Z
 ---------------------------------------------------------------------
      1          6           0       -0.436469   -0.998853   -0.356044
      2          6           0        0.824388   -0.681175    0.271436
      3          6           0        1.760419    0.232742   -0.342751
      4          8           0       -1.229018    0.083690    0.359541
      5          8           0       -3.008844    0.558200   -0.136805
      6          8           0        2.834604    0.564641    0.152502
      7          1           0       -3.384023    0.332244    0.734843
      8          1           0       -0.520441   -0.825013   -1.430657
      9          1           0       -0.928680   -1.921444   -0.055798
     10          1           0        1.468447    0.618020   -1.346465
     11          1           0       -1.001171    0.948914   -0.031462
     12          1           0        1.051336   -1.067168    1.260434
 ---------------------------------------------------------------------
                    Distance matrix (angstroms):
                    1          2          3          4          5
     1  C    0.000000
     2  C    1.443749   0.000000
     3  C    2.518594   1.445207   0.000000
     4  O    1.520557   2.193002   3.074437   0.000000
     5  O    3.014895   4.049244   4.784789   1.907695   0.000000
     6  O    3.661018   2.367947   1.228539   4.097219   5.850609
     7  H    3.413199   4.353446   5.257033   2.201517   0.975493
     8  H    1.091817   2.174023   2.739472   2.128998   3.127216
     9  H    1.087930   2.172232   3.457471   2.069607   3.237635
    10  H    2.687734   2.172631   1.114059   3.236091   4.638210
    11  H    2.053786   2.466091   2.869875   0.976427   2.048050
    12  H    2.198006   1.085639   2.182377   2.708523   4.591205
                    6          7          8          9         10
     6  O    0.000000
     7  H    6.250156   0.000000
     8  H    3.961547   3.772100   0.000000
     9  H    4.515120   3.425337   1.805285   0.000000
    10  H    2.028827   5.287720   2.458680   3.723024   0.000000
    11  H    3.859362   2.577885   2.309906   2.871376   2.817399
    12  H    2.659015   4.680492   3.125874   2.526403   3.132054
                   11         12
    11  H    0.000000
    12  H    3.153786   0.000000
 Symmetry turned off by external request.
 Stoichiometry    C3H6O3
 Framework group  C1[X(C3H6O3)]
 Deg. of freedom    30
 Full point group                 C1      NOp   1
 Rotational constants (GHZ):          10.5438155           1.3489712           1.2714192
 Standard basis: 6-31+G(d) (6D, 7F)
   126 basis functions,   216 primitive gaussians,   126 cartesian basis functions
    24 alpha electrons       24 beta electrons
       nuclear repulsion energy       223.1964566072 Hartrees.
 NAtoms=   12 NActive=   12 NUniq=   12 SFac= 1.00D+00 NAtFMM=   60 NAOKFM=F Big=F
 Integral buffers will be    131072 words long.
 Raffenetti 2 integral format.
 Two-electron integral symmetry is turned off.
 One-electron integrals computed using PRISM.
 NBasis=   126 RedAO= T EigKep=  9.85D-05  NBF=   126
 NBsUse=   126 1.00D-06 EigRej= -1.00D+00 NBFU=   126
 Initial guess from the checkpoint file:  "/scratch/bell/zhao922/YARP/paper-example/KHP-network/pp_0/IRC-folder/Gau-72613.chk"
 B after Tr=     0.000033    0.000010    0.000102
         Rot=    1.000000   -0.000007   -0.000014   -0.000007 Ang=  -0.00 deg.
 ExpMin= 4.38D-02 ExpMax= 5.48D+03 ExpMxC= 8.25D+02 IAcc=3 IRadAn=         5 AccDes= 0.00D+00
 Harris functional with IExCor=  402 and IRadAn=       5 diagonalized for initial guess.
 HarFok:  IExCor=  402 AccDes= 0.00D+00 IRadAn=         5 IDoV= 1 UseB2=F ITyADJ=14
 ICtDFT=  3500011 ScaDFX=  1.000000  1.000000  1.000000  1.000000
 FoFCou: FMM=F IPFlag=           0 FMFlag=      100000 FMFlg1=           0
         NFxFlg=           0 DoJE=T BraDBF=F KetDBF=T FulRan=T
         wScrn=  0.000000 ICntrl=       500 IOpCl=  0 I1Cent=   200000004 NGrid=           0
         NMat0=    1 NMatS0=      1 NMatT0=    0 NMatD0=    1 NMtDS0=    0 NMtDT0=    0
 Symmetry not used in FoFCou.
 Keep R1 ints in memory in canonical form, NReq=47237243.
 Requested convergence on RMS density matrix=1.00D-08 within 128 cycles.
 Requested convergence on MAX density matrix=1.00D-06.
 Requested convergence on             energy=1.00D-06.
 No special actions if energy rises.
 SCF Done:  E(RB3LYP) =  -343.423801323     A.U. after   11 cycles
            NFock= 11  Conv=0.34D-08     -V/T= 2.0093
 DoSCS=F DFT=T ScalE2(SS,OS)=  1.000000  1.000000
 Range of M.O.s used for correlation:     1   126
 NBasis=   126 NAE=    24 NBE=    24 NFC=     0 NFV=     0
 NROrb=    126 NOA=    24 NOB=    24 NVA=   102 NVB=   102

 **** Warning!!: The largest alpha MO coefficient is  0.30581146D+02


 **** Warning!!: The smallest alpha delta epsilon is  0.90341652D-01

 Symmetrizing basis deriv contribution to polar:
 IMax=3 JMax=2 DiffMx= 0.00D+00
 Calling FoFJK, ICntrl=      2127 FMM=F ISym2X=0 I1Cent= 0 IOpClX= 0 NMat=1 NMatS=1 NMatT=0.
 -------------------------------------------------------------------
 Center     Atomic                   Forces (Hartrees/Bohr)
 Number     Number              X              Y              Z
 -------------------------------------------------------------------
      1        6           0.000300226   -0.000065929   -0.000072492
      2        6           0.000003309    0.000052069    0.000098223
      3        6           0.000153093   -0.000188359   -0.000009954
      4        8          -0.000935788    0.000321700   -0.000613307
      5        8           0.000241653   -0.000100370    0.000476288
      6        8           0.000086012    0.000048259    0.000041682
      7        1           0.000025100   -0.000063021    0.000017024
      8        1           0.000035090   -0.000005296   -0.000005567
      9        1           0.000005850    0.000008185    0.000001920
     10        1           0.000026717   -0.000045619   -0.000016828
     11        1           0.000071670    0.000017640    0.000065792
     12        1          -0.000012932    0.000020743    0.000017221
 -------------------------------------------------------------------
 Cartesian Forces:  Max     0.000935788 RMS     0.000226892
 IRC-IRC-IRC-IRC-IRC-IRC-IRC-IRC-IRC-IRC-IRC-IRC-IRC-IRC-IRC-IRC-IRC-IRC
 Error in corrector energy =           0.0000001061
 Magnitude of corrector gradient =     0.0013525642
 Magnitude of analytic gradient =      0.0013613519
 Magnitude of difference =             0.0000334187
 Angle between gradients (degrees)=    1.3614
 Pt  2 Step number   2 out of a maximum of 100
 Modified Bulirsch-Stoer Extrapolation Cycles:
    EPS =    0.000010000000000
      PEZero:  N= 2 I= 1 D=  1.31D-03 Err=  2.64D-02
      PEZero:  N= 3 I= 2 D=  1.31D-03 Err=  4.13D-02
      PEZero:  N= 3 I= 1 D=  2.61D-03 Err=  3.55D-02
      PEZero:  N= 4 I= 3 D=  6.53D-04 Err=  7.11D-02
      PEZero:  N= 4 I= 2 D=  1.96D-03 Err=  5.35D-02
      PEZero:  N= 4 I= 1 D=  3.27D-03 Err=  4.29D-02
      PEZero:  N= 5 I= 4 D=  6.53D-04 Err=  1.00D-01
      PEZero:  N= 5 I= 3 D=  1.31D-03 Err=  7.90D-02
      PEZero:  N= 5 I= 2 D=  2.61D-03 Err=  5.23D-02
      PEZero:  N= 5 I= 1 D=  3.92D-03 Err=  3.80D-02
      PEZero:  N= 6 I= 5 D=  3.27D-04 Err=  3.59D-02
      PEZero:  N= 6 I= 4 D=  9.80D-04 Err=  5.23D-02
      PEZero:  N= 7 I= 6 D=  3.27D-04 Err=  1.14D-05
      PEZero:  N= 7 I= 5 D=  6.53D-04 Err=  3.59D-02
      PEZero:  N= 8 I= 7 D=  1.63D-04 Err=  8.70D-06
      PEZero:  N= 8 I= 6 D=  4.90D-04 Err=  6.50D-07
      PEZero:  N= 8 I= 5 D=  8.17D-04 Err=  4.74D-02
 Maximum DWI energy   std dev =  0.000002550 at pt   144
 Maximum DWI gradient std dev =  0.890080198 at pt   137
 CORRECTOR INTEGRATION CONVERGENCE:
   Recorrection delta-x convergence threshold:    0.010000
   Delta-x Convergence Met
 Point Number:   2          Path Number:   1
   CHANGE IN THE REACTION COORDINATE =    0.25052
   NET REACTION COORDINATE UP TO THIS POINT =    0.49987
  # OF POINTS ALONG THE PATH =   2
  # OF STEPS =   2

 Calculating another point on the path.
 IRC-IRC-IRC-IRC-IRC-IRC-IRC-IRC-IRC-IRC-IRC-IRC-IRC-IRC-IRC-IRC-IRC-IRC
                          Input orientation:                          
 ---------------------------------------------------------------------
 Center     Atomic      Atomic             Coordinates (Angstroms)
 Number     Number       Type             X           Y           Z
 ---------------------------------------------------------------------
      1          6           0       -0.427191   -1.001254   -0.358329
      2          6           0        0.824574   -0.679157    0.274627
      3          6           0        1.765346    0.227110   -0.343062
      4          8           0       -1.249954    0.089772    0.345148
      5          8           0       -3.004302    0.556799   -0.125457
      6          8           0        2.836766    0.565852    0.153690
      7          1           0       -3.375315    0.311083    0.742991
      8          1           0       -0.506919   -0.828271   -1.433238
      9          1           0       -0.925587   -1.919387   -0.055124
     10          1           0        1.478813    0.601187   -1.353058
     11          1           0       -0.977147    0.957476   -0.015644
     12          1           0        1.046326   -1.058485    1.267424
 ---------------------------------------------------------------------
                    Distance matrix (angstroms):
                    1          2          3          4          5
     1  C    0.000000
     2  C    1.439200   0.000000
     3  C    2.513230   1.444960   0.000000
     4  O    1.536931   2.213570   3.095889   0.000000
     5  O    3.020473   4.043259   4.785978   1.875451   0.000000
     6  O    3.656692   2.369301   1.228597   4.118809   5.847741
     7  H    3.409775   4.340393   5.254803   2.173572   0.975822
     8  H    1.091655   2.170694   2.732307   2.134844   3.140960
     9  H    1.087796   2.170247   3.454197   2.074162   3.233805
    10  H    2.681447   2.171790   1.114508   3.254477   4.648365
    11  H    2.063130   2.451331   2.856905   0.978522   2.069289
    12  H    2.194903   1.085683   2.182523   2.728001   4.577864
                    6          7          8          9         10
     6  O    0.000000
     7  H    6.245169   0.000000
     8  H    3.955016   3.776479   0.000000
     9  H    4.513903   3.407807   1.806936   0.000000
    10  H    2.028688   5.295294   2.448042   3.717401   0.000000
    11  H    3.837705   2.597029   2.327999   2.877596   2.819106
    12  H    2.661682   4.658503   3.123963   2.525614   3.131850
                   11         12
    11  H    0.000000
    12  H    3.131263   0.000000
 Symmetry turned off by external request.
 Stoichiometry    C3H6O3
 Framework group  C1[X(C3H6O3)]
 Deg. of freedom    30
 Full point group                 C1      NOp   1
 Rotational constants (GHZ):          10.5735954           1.3472750           1.2695538
 Standard basis: 6-31+G(d) (6D, 7F)
   126 basis functions,   216 primitive gaussians,   126 cartesian basis functions
    24 alpha electrons       24 beta electrons
       nuclear repulsion energy       223.1607848216 Hartrees.
 NAtoms=   12 NActive=   12 NUniq=   12 SFac= 1.00D+00 NAtFMM=   60 NAOKFM=F Big=F
 Integral buffers will be    131072 words long.
 Raffenetti 2 integral format.
 Two-electron integral symmetry is turned off.
 One-electron integrals computed using PRISM.
 NBasis=   126 RedAO= T EigKep=  9.82D-05  NBF=   126
 NBsUse=   126 1.00D-06 EigRej= -1.00D+00 NBFU=   126
 Initial guess from the checkpoint file:  "/scratch/bell/zhao922/YARP/paper-example/KHP-network/pp_0/IRC-folder/Gau-72613.chk"
 B after Tr=     0.001068   -0.000419    0.000428
         Rot=    1.000000    0.000147   -0.000012   -0.000042 Ang=   0.02 deg.
 ExpMin= 4.38D-02 ExpMax= 5.48D+03 ExpMxC= 8.25D+02 IAcc=3 IRadAn=         5 AccDes= 0.00D+00
 Harris functional with IExCor=  402 and IRadAn=       5 diagonalized for initial guess.
 HarFok:  IExCor=  402 AccDes= 0.00D+00 IRadAn=         5 IDoV= 1 UseB2=F ITyADJ=14
 ICtDFT=  3500011 ScaDFX=  1.000000  1.000000  1.000000  1.000000
 FoFCou: FMM=F IPFlag=           0 FMFlag=      100000 FMFlg1=           0
         NFxFlg=           0 DoJE=T BraDBF=F KetDBF=T FulRan=T
         wScrn=  0.000000 ICntrl=       500 IOpCl=  0 I1Cent=   200000004 NGrid=           0
         NMat0=    1 NMatS0=      1 NMatT0=    0 NMatD0=    1 NMtDS0=    0 NMtDT0=    0
 Symmetry not used in FoFCou.
 Keep R1 ints in memory in canonical form, NReq=47237243.
 Requested convergence on RMS density matrix=1.00D-08 within 128 cycles.
 Requested convergence on MAX density matrix=1.00D-06.
 Requested convergence on             energy=1.00D-06.
 No special actions if energy rises.
 SCF Done:  E(RB3LYP) =  -343.423904240     A.U. after   13 cycles
            NFock= 13  Conv=0.37D-08     -V/T= 2.0093
 DoSCS=F DFT=T ScalE2(SS,OS)=  1.000000  1.000000
 Range of M.O.s used for correlation:     1   126
 NBasis=   126 NAE=    24 NBE=    24 NFC=     0 NFV=     0
 NROrb=    126 NOA=    24 NOB=    24 NVA=   102 NVB=   102

 **** Warning!!: The largest alpha MO coefficient is  0.30733257D+02


 **** Warning!!: The smallest alpha delta epsilon is  0.92896997D-01

 Symmetrizing basis deriv contribution to polar:
 IMax=3 JMax=2 DiffMx= 0.00D+00
 G2DrvN: will do    13 centers at a time, making    1 passes.
 Calling FoFCou, ICntrl=  3107 FMM=F I1Cent=   0 AccDes= 0.00D+00.
 End of G2Drv F.D. properties file   721 does not exist.
 End of G2Drv F.D. properties file   722 does not exist.
 End of G2Drv F.D. properties file   788 does not exist.
          IDoAtm=111111111111
          Differentiating once with respect to nuclear coordinates.
 Keep R1 ints in memory in canonical form, NReq=47193265.
          There are    39 degrees of freedom in the 1st order CPHF.  IDoFFX=6 NUNeed=     0.
     33 vectors produced by pass  0 Test12= 6.28D-15 2.56D-09 XBig12= 1.81D-01 2.20D-01.
 AX will form    33 AO Fock derivatives at one time.
     33 vectors produced by pass  1 Test12= 6.28D-15 2.56D-09 XBig12= 1.10D-01 7.21D-02.
     33 vectors produced by pass  2 Test12= 6.28D-15 2.56D-09 XBig12= 9.64D-04 5.83D-03.
     33 vectors produced by pass  3 Test12= 6.28D-15 2.56D-09 XBig12= 4.72D-06 4.15D-04.
     33 vectors produced by pass  4 Test12= 6.28D-15 2.56D-09 XBig12= 8.06D-09 1.16D-05.
     31 vectors produced by pass  5 Test12= 6.28D-15 2.56D-09 XBig12= 9.01D-12 5.78D-07.
      5 vectors produced by pass  6 Test12= 6.28D-15 2.56D-09 XBig12= 7.46D-15 1.08D-08.
 InvSVY:  IOpt=1 It=  1 EMax= 1.78D-15
 Solved reduced A of dimension   201 with    33 vectors.
 End of Minotr F.D. properties file   721 does not exist.
 End of Minotr F.D. properties file   722 does not exist.
 End of Minotr F.D. properties file   788 does not exist.
 Calling FoFJK, ICntrl=    100127 FMM=F ISym2X=0 I1Cent= 0 IOpClX= 0 NMat=1 NMatS=1 NMatT=0.
 -------------------------------------------------------------------
 Center     Atomic                   Forces (Hartrees/Bohr)
 Number     Number              X              Y              Z
 -------------------------------------------------------------------
      1        6           0.000710977   -0.000604511   -0.000185851
      2        6          -0.000122243    0.000050180    0.000061734
      3        6           0.000272083   -0.000151616   -0.000028634
      4        8          -0.000798789    0.001899999   -0.001226620
      5        8           0.000228068   -0.000071135    0.000734425
      6        8           0.000048541    0.000047674    0.000023589
      7        1           0.000099233   -0.000004962   -0.000136424
      8        1           0.000028974    0.000012465    0.000015505
      9        1           0.000017496    0.000012072   -0.000005312
     10        1           0.000045119   -0.000073530    0.000027257
     11        1          -0.000510416   -0.001157042    0.000713390
     12        1          -0.000019042    0.000040406    0.000006943
 -------------------------------------------------------------------
 Cartesian Forces:  Max     0.001899999 RMS     0.000514444
 IRC-IRC-IRC-IRC-IRC-IRC-IRC-IRC-IRC-IRC-IRC-IRC-IRC-IRC-IRC-IRC-IRC-IRC
 Pt  3 Step number   1 out of a maximum of 100
 Modified Bulirsch-Stoer Extrapolation Cycles:
    EPS =    0.000010000000000
      PEZero:  N= 2 I= 1 D=  1.31D-03 Err=  4.01D-02
      PEZero:  N= 3 I= 2 D=  1.31D-03 Err=  6.06D-02
      PEZero:  N= 3 I= 1 D=  2.62D-03 Err=  5.07D-02
      PEZero:  N= 4 I= 3 D=  6.55D-04 Err=  1.04D-01
      PEZero:  N= 4 I= 2 D=  1.96D-03 Err=  7.86D-02
      PEZero:  N= 4 I= 1 D=  3.27D-03 Err=  6.39D-02
      PEZero:  N= 5 I= 4 D=  6.55D-04 Err=  6.39D-02
      PEZero:  N= 5 I= 3 D=  1.31D-03 Err=  8.52D-03
      PEZero:  N= 5 I= 2 D=  2.62D-03 Err=  4.78D-02
      PEZero:  N= 6 I= 5 D=  3.27D-04 Err=  2.74D-05
      PEZero:  N= 6 I= 4 D=  9.82D-04 Err=  6.39D-02
      PEZero:  N= 7 I= 6 D=  3.27D-04 Err=  1.83D-05
      PEZero:  N= 7 I= 5 D=  6.55D-04 Err=  3.62D-07
      PEZero:  N= 7 I= 4 D=  1.31D-03 Err=  4.26D-03
 Maximum DWI energy   std dev =  0.000001359 at pt   122
 Maximum DWI gradient std dev =  0.511565610 at pt   124
 CORRECTOR INTEGRATION CONVERGENCE:
   Recorrection delta-x convergence threshold:    0.010000
   Delta-x Convergence NOT Met
 IRC-IRC-IRC-IRC-IRC-IRC-IRC-IRC-IRC-IRC-IRC-IRC-IRC-IRC-IRC-IRC-IRC-IRC
                          Input orientation:                          
 ---------------------------------------------------------------------
 Center     Atomic      Atomic             Coordinates (Angstroms)
 Number     Number       Type             X           Y           Z
 ---------------------------------------------------------------------
      1          6           0       -0.426570   -1.001996   -0.358437
      2          6           0        0.824569   -0.679352    0.274428
      3          6           0        1.765156    0.227354   -0.343113
      4          8           0       -1.250480    0.089973    0.345911
      5          8           0       -3.003813    0.557029   -0.125899
      6          8           0        2.836617    0.565892    0.153498
      7          1           0       -3.375695    0.312228    0.742216
      8          1           0       -0.507230   -0.827975   -1.433050
      9          1           0       -0.925508   -1.919694   -0.055018
     10          1           0        1.478263    0.601916   -1.352726
     11          1           0       -0.979115    0.957150   -0.013011
     12          1           0        1.046809   -1.059073    1.266939
 ---------------------------------------------------------------------
                    Distance matrix (angstroms):
                    1          2          3          4          5
     1  C    0.000000
     2  C    1.438737   0.000000
     3  C    2.513006   1.445053   0.000000
     4  O    1.538613   2.214226   3.096399   0.000000
     5  O    3.021062   4.042946   4.785283   1.874813   0.000000
     6  O    3.656328   2.369303   1.228518   4.119209   5.847116
     7  H    3.411152   4.340999   5.254854   2.173245   0.975627
     8  H    1.091596   2.170543   2.732292   2.135357   3.140033
     9  H    1.087737   2.170196   3.454344   2.074877   3.233966
    10  H    2.681331   2.171773   1.114416   3.254764   4.647163
    11  H    2.064673   2.452353   2.858775   0.976964   2.066941
    12  H    2.194527   1.085660   2.182472   2.728761   4.578135
                    6          7          8          9         10
     6  O    0.000000
     7  H    6.245298   0.000000
     8  H    3.954909   3.776233   0.000000
     9  H    4.513890   3.408881   1.807147   0.000000
    10  H    2.028578   5.294677   2.448106   3.717618   0.000000
    11  H    3.839351   2.594203   2.329347   2.877650   2.821300
    12  H    2.661518   4.659864   3.123841   2.525524   3.131722
                   11         12
    11  H    0.000000
    12  H    3.131740   0.000000
 Symmetry turned off by external request.
 Stoichiometry    C3H6O3
 Framework group  C1[X(C3H6O3)]
 Deg. of freedom    30
 Full point group                 C1      NOp   1
 Rotational constants (GHZ):          10.5656056           1.3474286           1.2696086
 Standard basis: 6-31+G(d) (6D, 7F)
   126 basis functions,   216 primitive gaussians,   126 cartesian basis functions
    24 alpha electrons       24 beta electrons
       nuclear repulsion energy       223.1565562939 Hartrees.
 NAtoms=   12 NActive=   12 NUniq=   12 SFac= 1.00D+00 NAtFMM=   60 NAOKFM=F Big=F
 Integral buffers will be    131072 words long.
 Raffenetti 2 integral format.
 Two-electron integral symmetry is turned off.
 One-electron integrals computed using PRISM.
 NBasis=   126 RedAO= T EigKep=  9.80D-05  NBF=   126
 NBsUse=   126 1.00D-06 EigRej= -1.00D+00 NBFU=   126
 Initial guess from the checkpoint file:  "/scratch/bell/zhao922/YARP/paper-example/KHP-network/pp_0/IRC-folder/Gau-72613.chk"
 B after Tr=    -0.000062    0.000021    0.000037
         Rot=    1.000000   -0.000031   -0.000003    0.000001 Ang=  -0.00 deg.
 ExpMin= 4.38D-02 ExpMax= 5.48D+03 ExpMxC= 8.25D+02 IAcc=3 IRadAn=         5 AccDes= 0.00D+00
 Harris functional with IExCor=  402 and IRadAn=       5 diagonalized for initial guess.
 HarFok:  IExCor=  402 AccDes= 0.00D+00 IRadAn=         5 IDoV= 1 UseB2=F ITyADJ=14
 ICtDFT=  3500011 ScaDFX=  1.000000  1.000000  1.000000  1.000000
 FoFCou: FMM=F IPFlag=           0 FMFlag=      100000 FMFlg1=           0
         NFxFlg=           0 DoJE=T BraDBF=F KetDBF=T FulRan=T
         wScrn=  0.000000 ICntrl=       500 IOpCl=  0 I1Cent=   200000004 NGrid=           0
         NMat0=    1 NMatS0=      1 NMatT0=    0 NMatD0=    1 NMtDS0=    0 NMtDT0=    0
 Symmetry not used in FoFCou.
 Keep R1 ints in memory in canonical form, NReq=47237243.
 Requested convergence on RMS density matrix=1.00D-08 within 128 cycles.
 Requested convergence on MAX density matrix=1.00D-06.
 Requested convergence on             energy=1.00D-06.
 No special actions if energy rises.
 SCF Done:  E(RB3LYP) =  -343.423907907     A.U. after   11 cycles
            NFock= 11  Conv=0.33D-08     -V/T= 2.0093
 DoSCS=F DFT=T ScalE2(SS,OS)=  1.000000  1.000000
 Range of M.O.s used for correlation:     1   126
 NBasis=   126 NAE=    24 NBE=    24 NFC=     0 NFV=     0
 NROrb=    126 NOA=    24 NOB=    24 NVA=   102 NVB=   102

 **** Warning!!: The largest alpha MO coefficient is  0.30743139D+02


 **** Warning!!: The smallest alpha delta epsilon is  0.93024697D-01

[...]
  12                    0.91362  -1.16033  -2.32174   0.82364   0.00363
  13                    0.89464  -1.17798  -2.30230   0.84636  -0.02867
  14                    0.87369  -1.19794  -2.28422   0.86774  -0.06034
  15                    0.84875  -1.22143  -2.26794   0.88728  -0.08933
  16                    0.81915  -1.24749  -2.25413   0.90458  -0.11342
  17                    0.78751  -1.27250  -2.24300   0.91923  -0.13171
  18                    0.75941  -1.29243  -2.23409   0.93057  -0.14464
  19                    0.73960  -1.30528  -2.22682   0.93780  -0.15284
  20                    0.72704  -1.31282  -2.22053   0.94139  -0.15767
  21                    0.71848  -1.31758  -2.21448   0.94239  -0.16055
  22                    0.71199  -1.32092  -2.20812   0.94127  -0.16218
  23                    0.70665  -1.32346  -2.20108   0.93805  -0.16287
  24                    0.70204  -1.32548  -2.19302   0.93249  -0.16271
  25                    0.69791  -1.32712  -2.18362   0.92413  -0.16173
  26                    0.69415  -1.32843  -2.17255   0.91236  -0.15988
  27                    0.69068  -1.32942  -2.15952   0.89642  -0.15714
  28                    0.68746  -1.33009  -2.14425   0.87551  -0.15352
  29                    0.68443  -1.33043  -2.12656   0.84885  -0.14911
  30                    0.68155  -1.33043  -2.10638   0.81592  -0.14391
  31                    0.67881  -1.33018  -2.08236   0.77685  -0.13749
  32                    0.67654  -1.32997  -2.02050   0.74435  -0.12884
  33                    0.67517  -1.33005  -1.90733   0.73586  -0.12170
  34                    0.67409  -1.33027  -1.78495   0.74370  -0.12028
  35                    0.67281  -1.33059  -1.66441   0.76373  -0.12490
  36                    0.67116  -1.33101  -1.54802   0.79211  -0.13163
  37                    0.66897  -1.33153  -1.43639   0.82334  -0.13498
  38                    0.66593  -1.33218  -1.33117   0.85382  -0.13064
  39                    0.66163  -1.33307  -1.23458   0.88105  -0.11853
  40                    0.65522  -1.33448  -1.15179   0.90394  -0.09947
  41                    0.64612  -1.33689  -1.08434   0.92264  -0.07561
  42                    0.63389  -1.34067  -1.03473   0.93755  -0.05140
  43                    0.61799  -1.34653  -1.00162   0.94875  -0.03164
  44                    0.60212  -1.35267  -0.97962   0.95704  -0.01340
  45                    0.58896  -1.35780  -0.96573   0.96329   0.00433
  46                    0.57992  -1.36125  -0.95749   0.96894   0.02272
  47                    0.57421  -1.36340  -0.95370   0.97466   0.04062
  48                    0.57072  -1.36473  -0.95462   0.98086   0.05633
  49                    0.56846  -1.36564  -0.95899   0.98746   0.07017
  50                    0.56689  -1.36630  -0.96616   0.99443   0.08238
  51                    0.56575  -1.36681  -0.97569   1.00175   0.09328
  52                    0.56485  -1.36721  -0.98726   1.00947   0.10318
  53                    0.56409  -1.36755  -1.00060   1.01767   0.11243
  54                    0.56340  -1.36784  -1.01547   1.02650   0.12141
  55                    0.56270  -1.36812  -1.03164   1.03618   0.13054
  56                    0.56195  -1.36843  -1.04880   1.04690   0.14021
  57                    0.56107  -1.36880  -1.06653   1.05868   0.15060
  58                    0.55998  -1.36926  -1.08432   1.07118   0.16148
  59                    0.55857  -1.36985  -1.10183   1.08383   0.17237
  60                    0.55672  -1.37059  -1.11896   1.09621   0.18288
  61                    0.55433  -1.37154  -1.13574   1.10805   0.19282
  62                    0.55131  -1.37278  -1.15218   1.11926   0.20215
  63                    0.54759  -1.37435  -1.16829   1.12980   0.21090
  64                    0.54314  -1.37631  -1.18408   1.13968   0.21908
  65                    0.53795  -1.37868  -1.19953   1.14891   0.22677
  66                    0.53205  -1.38147  -1.21465   1.15749   0.23402
  67                    0.52546  -1.38467  -1.22944   1.16546   0.24092
  68                    0.51824  -1.38826  -1.24392   1.17282   0.24760
  69                    0.51046  -1.39217  -1.25812   1.17961   0.25419
  70                    0.50220  -1.39637  -1.27207   1.18585   0.26085
  71                    0.49357  -1.40078  -1.28581   1.19156   0.26775
  72                    0.48467  -1.40534  -1.29936   1.19673   0.27505
  73                    0.47563  -1.40996  -1.31276   1.20137   0.28289
  74                    0.46657  -1.41457  -1.32605   1.20546   0.29142
  75                    0.45763  -1.41910  -1.33923   1.20895   0.30074
  76                    0.44897  -1.42346  -1.35233   1.21178   0.31092
  77                    0.44071  -1.42760  -1.36533   1.21386   0.32201
  78                    0.43299  -1.43144  -1.37822   1.21507   0.33402
  79                    0.42590  -1.43495  -1.39095   1.21526   0.34694
  80                    0.41953  -1.43808  -1.40347   1.21428   0.36071
  81                    0.41391  -1.44084  -1.41573   1.21197   0.37524
                          X12       Y12       Z12
   1                    1.10297  -1.08809   1.27826
   2                    1.09371  -1.08209   1.28138
   3                    1.08498  -1.07772   1.28246
   4                    1.07755  -1.07574   1.28122
   5                    1.07130  -1.07563   1.27856
   6                    1.06565  -1.07663   1.27527
   7                    1.06020  -1.07825   1.27178
   8                    1.05469  -1.08018   1.26829
   9                    1.04907  -1.08223   1.26497
  10                    1.04328  -1.08419   1.26182
  11                    1.03731  -1.08586   1.25883
  12                    1.03121  -1.08687   1.25596
  13                    1.02498  -1.08675   1.25318
  14                    1.01851  -1.08484   1.25053
  15                    1.01136  -1.08078   1.24816
  16                    1.00276  -1.07513   1.24634
  17                    0.99258  -1.06948   1.24522
  18                    0.98262  -1.06533   1.24484
  19                    0.97615  -1.06282   1.24560
  20                    0.97396  -1.06103   1.24747
  21                    0.97478  -1.05942   1.24991
  22                    0.97761  -1.05790   1.25244
  23                    0.98198  -1.05656   1.25477
  24                    0.98761  -1.05553   1.25666
  25                    0.99434  -1.05497   1.25798
  26                    1.00196  -1.05496   1.25865
  27                    1.01024  -1.05555   1.25863
  28                    1.01882  -1.05667   1.25796
  29                    1.02726  -1.05817   1.25677
  30                    1.03502  -1.05982   1.25521
  31                    1.04154  -1.06135   1.25352
  32                    1.04603  -1.06258   1.25209
  33                    1.04832  -1.06337   1.25126
  34                    1.04987  -1.06411   1.25061
  35                    1.05140  -1.06509   1.24990
  36                    1.05302  -1.06641   1.24913
  37                    1.05472  -1.06815   1.24837
  38                    1.05646  -1.07031   1.24779
  39                    1.05801  -1.07267   1.24763
  40                    1.05887  -1.07475   1.24835
  41                    1.05828  -1.07531   1.25049
  42                    1.05588  -1.07337   1.25438
  43                    1.05134  -1.06696   1.26052
  44                    1.04694  -1.05908   1.26689
  45                    1.04415  -1.05224   1.27214
  46                    1.04354  -1.04836   1.27537
  47                    1.04439  -1.04688   1.27697
  48                    1.04589  -1.04673   1.27756
  49                    1.04767  -1.04713   1.27769
  50                    1.04961  -1.04775   1.27761
  51                    1.05167  -1.04842   1.27748
  52                    1.05390  -1.04908   1.27739
  53                    1.05636  -1.04971   1.27737
  54                    1.05917  -1.05033   1.27748
  55                    1.06246  -1.05101   1.27773
  56                    1.06644  -1.05187   1.27809
  57                    1.07130  -1.05311   1.27846
  58                    1.07712  -1.05499   1.27866
  59                    1.08389  -1.05774   1.27849
  60                    1.09156  -1.06150   1.27782
  61                    1.10011  -1.06629   1.27659
  62                    1.10950  -1.07209   1.27481
  63                    1.11972  -1.07881   1.27250
  64                    1.13074  -1.08631   1.26971
  65                    1.14252  -1.09449   1.26649
  66                    1.15502  -1.10322   1.26292
  67                    1.16816  -1.11237   1.25905
  68                    1.18188  -1.12184   1.25495
  69                    1.19608  -1.13153   1.25068
  70                    1.21068  -1.14135   1.24631
  71                    1.22559  -1.15120   1.24190
  72                    1.24074  -1.16101   1.23751
  73                    1.25605  -1.17068   1.23320
  74                    1.27142  -1.18013   1.22903
  75                    1.28680  -1.18926   1.22504
  76                    1.30211  -1.19800   1.22129
  77                    1.31729  -1.20625   1.21783
  78                    1.33230  -1.21395   1.21468
  79                    1.34708  -1.22104   1.21187
  80                    1.36160  -1.22746   1.20943
  81                    1.37583  -1.23320   1.20737
 --------------------------------------------------------------------------
 
 Total number of points:                   80
 Total number of gradient calculations:    98
 Total number of Hessian calculations:     81
 IRC-IRC-IRC-IRC-IRC-IRC-IRC-IRC-IRC-IRC-IRC-IRC-IRC-IRC-IRC-IRC-IRC-IRC
                          Input orientation:                          
 ---------------------------------------------------------------------
 Center     Atomic      Atomic             Coordinates (Angstroms)
 Number     Number       Type             X           Y           Z
 ---------------------------------------------------------------------
      1          6           0       -0.345751   -1.186446   -0.413504
      2          6           0        0.713016   -0.557580    0.411072
      3          6           0        1.638312    0.431739   -0.222803
      4          8           0       -0.664070   -0.143519    0.507892
      5          8           0       -3.334450    0.751610   -0.299733
      6          8           0        2.828491    0.461265    0.006385
      7          1           0       -3.954391    1.018551    0.394629
      8          1           0       -0.449511   -0.917606   -1.464002
      9          1           0       -0.698708   -2.177694   -0.134836
     10          1           0        1.157500    1.138660   -0.931580
     11          1           0       -2.467205    0.678898    0.134530
     12          1           0        1.102984   -1.088108    1.278247
 ---------------------------------------------------------------------
                    Distance matrix (angstroms):
                    1          2          3          4          5
     1  C    0.000000
     2  C    1.482021   0.000000
     3  C    2.567371   1.495568   0.000000
     4  O    1.427583   1.441245   2.483103   0.000000
     5  O    3.563892   4.312911   4.983632   2.929922   0.000000
     6  O    3.600981   2.382656   1.212404   3.579840   6.177365
     7  H    4.305506   4.926374   5.657199   3.491339   0.968361
     8  H    1.089306   2.235395   2.778545   2.129227   3.530534
     9  H    1.088489   2.217150   3.504076   2.133581   3.944001
    10  H    2.816786   2.208508   1.110532   2.652202   4.552653
    11  H    2.877572   3.423326   4.128443   2.016696   0.972618
    12  H    2.229467   1.088819   2.202195   2.146666   5.056224
                    6          7          8          9         10
     6  O    0.000000
     7  H    6.816802   0.000000
     8  H    3.848197   4.414453   0.000000
     9  H    4.407401   4.593015   1.848406   0.000000
    10  H    2.032450   5.282489   2.663491   3.883106   0.000000
    11  H    5.301715   1.547494   3.029062   3.370498   3.806108
    12  H    2.644912   5.549400   3.155827   2.535764   3.137642
                   11         12
    11  H    0.000000
    12  H    4.144472   0.000000
 Symmetry turned off by external request.
 Stoichiometry    C3H6O3
 Framework group  C1[X(C3H6O3)]
 Deg. of freedom    30
 Full point group                 C1      NOp   1
 Rotational constants (GHZ):           8.4854675           1.2854970           1.1930549

 **********************************************************************

            Population analysis using the SCF Density.

 **********************************************************************

 Alpha  occ. eigenvalues --  -19.21697 -19.18726 -19.15234 -10.30956 -10.28638
 Alpha  occ. eigenvalues --  -10.28491  -1.12401  -1.07893  -1.00610  -0.74944
 Alpha  occ. eigenvalues --   -0.69542  -0.62111  -0.54785  -0.53062  -0.51972
 Alpha  occ. eigenvalues --   -0.47796  -0.44757  -0.43675  -0.42392  -0.38242
 Alpha  occ. eigenvalues --   -0.35378  -0.32889  -0.30566  -0.28755
 Alpha virt. eigenvalues --   -0.07024   0.00300   0.00475   0.01420   0.02652
 Alpha virt. eigenvalues --    0.05009   0.05267   0.06698   0.06976   0.07746
 Alpha virt. eigenvalues --    0.09574   0.10808   0.11234   0.13780   0.15156
 Alpha virt. eigenvalues --    0.16710   0.16725   0.17276   0.18371   0.19671
 Alpha virt. eigenvalues --    0.20672   0.21789   0.22917   0.23989   0.24573
 Alpha virt. eigenvalues --    0.25368   0.27853   0.28761   0.29542   0.30966
 Alpha virt. eigenvalues --    0.31516   0.32891   0.34983   0.36634   0.38624
 Alpha virt. eigenvalues --    0.44838   0.59383   0.60966   0.64133   0.67373
 Alpha virt. eigenvalues --    0.73014   0.73904   0.78505   0.82074   0.86166
 Alpha virt. eigenvalues --    0.92256   0.95175   0.98720   1.01555   1.04980
 Alpha virt. eigenvalues --    1.06660   1.11044   1.12972   1.14789   1.16216
 Alpha virt. eigenvalues --    1.18700   1.21534   1.22778   1.23758   1.27601
 Alpha virt. eigenvalues --    1.28028   1.30840   1.38029   1.40752   1.49812
 Alpha virt. eigenvalues --    1.53445   1.55752   1.57758   1.61118   1.62983
 Alpha virt. eigenvalues --    1.73620   1.74594   1.75496   1.77240   1.77867
 Alpha virt. eigenvalues --    1.79861   1.80047   1.91979   2.00666   2.01637
 Alpha virt. eigenvalues --    2.08651   2.14608   2.19431   2.23178   2.25015
 Alpha virt. eigenvalues --    2.33401   2.41657   2.43006   2.49197   2.59124
 Alpha virt. eigenvalues --    2.66014   2.72168   2.84734   2.89206   2.99710
 Alpha virt. eigenvalues --    3.07924   3.90037   4.12833   4.14405   4.23054
 Alpha virt. eigenvalues --    4.31055   4.48454
          Condensed to atoms (all electrons):
               1          2          3          4          5          6
     1  C    5.653289  -0.361586   0.092748   0.070079  -0.013673   0.009909
     2  C   -0.361586   6.406696  -0.086771   0.074666   0.010090  -0.148224
     3  C    0.092748  -0.086771   5.048186  -0.038650  -0.000486   0.444089
     4  O    0.070079   0.074666  -0.038650   8.338364   0.011820   0.004549
     5  O   -0.013673   0.010090  -0.000486   0.011820   8.566913   0.000007
     6  O    0.009909  -0.148224   0.444089   0.004549   0.000007   8.103462
     7  H    0.002621  -0.002905   0.000537  -0.002129   0.216027   0.000000
     8  H    0.400153  -0.070401   0.029854  -0.041296  -0.000124  -0.000370
     9  H    0.393256  -0.030314  -0.002624  -0.036070   0.000044   0.000525
    10  H    0.040179  -0.199136   0.424666   0.011245  -0.000001  -0.046894
    11  H   -0.006282   0.006983  -0.000458   0.014784   0.186615  -0.000002
    12  H   -0.003946   0.356405  -0.030258  -0.036465  -0.000020   0.003241
               7          8          9         10         11         12
     1  C    0.002621   0.400153   0.393256   0.040179  -0.006282  -0.003946
     2  C   -0.002905  -0.070401  -0.030314  -0.199136   0.006983   0.356405
     3  C    0.000537   0.029854  -0.002624   0.424666  -0.000458  -0.030258
     4  O   -0.002129  -0.041296  -0.036070   0.011245   0.014784  -0.036465
     5  O    0.216027  -0.000124   0.000044  -0.000001   0.186615  -0.000020
     6  O    0.000000  -0.000370   0.000525  -0.046894  -0.000002   0.003241
     7  H    0.337650   0.000001   0.000005   0.000000  -0.014716   0.000001
     8  H    0.000001   0.495109  -0.034764   0.001845   0.000245   0.000735
     9  H    0.000005  -0.034764   0.492570  -0.000001  -0.000050  -0.000348
    10  H    0.000000   0.001845  -0.000001   0.584117  -0.000022   0.003006
    11  H   -0.014716   0.000245  -0.000050  -0.000022   0.285455  -0.000031
    12  H    0.000001   0.000735  -0.000348   0.003006  -0.000031   0.484361
 Mulliken charges:
               1
     1  C   -0.276746
     2  C    0.044498
     3  C    0.119166
     4  O   -0.370897
     5  O   -0.977212
     6  O   -0.370292
     7  H    0.462908
     8  H    0.219013
     9  H    0.217770
    10  H    0.180995
    11  H    0.527480
    12  H    0.223318
 Sum of Mulliken charges =   0.00000
 Mulliken charges with hydrogens summed into heavy atoms:
               1
     1  C    0.160038
     2  C    0.267816
     3  C    0.300160
     4  O   -0.370897
     5  O    0.013176
     6  O   -0.370292
 APT charges:
               1
     1  C   -0.770119
     2  C   -0.260455
     3  C   -0.481576
     4  O   -0.395045
     5  O   -1.078663
     6  O    0.044087
     7  H    0.885699
     8  H    0.408631
     9  H    0.561976
    10  H    0.322640
    11  H    0.230865
    12  H    0.531960
 Sum of APT charges =   0.00000
 APT charges with hydrogens summed into heavy atoms:
               1
     1  C    0.200488
     2  C    0.271505
     3  C   -0.158936
     4  O   -0.395045
     5  O    0.037901
     6  O    0.044087
 Electronic spatial extent (au):  <R**2>=            939.6480
 Charge=              0.0000 electrons
 Dipole moment (field-independent basis, Debye):
    X=             -0.7097    Y=             -1.6096    Z=              0.8254  Tot=              1.9431
 Quadrupole moment (field-independent basis, Debye-Ang):
   XX=            -49.5758   YY=            -33.1536   ZZ=            -34.8028
   XY=             -1.7238   XZ=             -6.4822   YZ=              1.6362
 Traceless Quadrupole moment (field-independent basis, Debye-Ang):
   XX=            -10.3984   YY=              6.0238   ZZ=              4.3746
   XY=             -1.7238   XZ=             -6.4822   YZ=              1.6362
 Octapole moment (field-independent basis, Debye-Ang**2):
  XXX=            -40.3360  YYY=             -0.9057  ZZZ=              2.0081  XYY=             -1.8514
  XXY=              2.7554  XXZ=             26.7008  XZZ=              3.2693  YZZ=              0.2583
  YYZ=              3.2490  XYZ=             -8.3612
 Hexadecapole moment (field-independent basis, Debye-Ang**3):
 XXXX=           -954.9370 YYYY=           -151.1635 ZZZZ=            -75.0854 XXXY=            -45.1051
 XXXZ=           -114.2280 YYYX=             21.7458 YYYZ=              5.3454 ZZZX=            -14.1395
 ZZZY=              4.5949 XXYY=           -174.0206 XXZZ=           -165.8923 YYZZ=            -37.8901
 XXYZ=             26.8463 YYXZ=            -11.1172 ZZXY=              5.2920
 N-N= 2.219380895448D+02 E-N=-1.248220063893D+03  KE= 3.404157379806D+02
  Exact polarizability:   0.000   0.000   0.000   0.000   0.000   0.000
 Approx polarizability:  86.808   4.444  55.890   6.443   0.247  54.568

 This type of calculation cannot be archived.


 THERE IS SOMETHING FASCINATING ABOUT SCIENCE.
 ONE GETS SUCH WHOLESALE CONJECTURE OUT OF SUCH TRIFLING INVESTMENTS.

                                                       -- MARK TWAIN
 Job cpu time:       0 days  5 hours 35 minutes  2.5 seconds.
 Elapsed time:       0 days  0 hours 21 minutes 41.0 seconds.
 File lengths (MBytes):  RWF=     28 Int=      0 D2E=      0 Chk=      4 Scr=      1
 Normal termination of Gaussian 16 at Wed Dec 23 22:38:36 2020.
