 Entering Gaussian System, Link 0=g16
 Initial command:
 /apps/cent7/gaussian/g16-B.01/g16-haswell/g16/l1.exe "/scratch/bell/zhao922/YARP/paper-example/KHP-network/pp_0/IRC-folder/Gau-50952.inp" -scrdir="/scratch/bell/zhao922/YARP/paper-example/KHP-network/pp_0/IRC-folder/"
 Entering Link 1 = /apps/cent7/gaussian/g16-B.01/g16-haswell/g16/l1.exe PID=     50954.
  
 Copyright (c) 1988-2017, Gaussian, Inc.  All Rights Reserved.
  
 This is part of the Gaussian(R) 16 program.  It is based on
 the Gaussian(R) 09 system (copyright 2009, Gaussian, Inc.),
 the Gaussian(R) 03 system (copyright 2003, Gaussian, Inc.),
 the Gaussian(R) 98 system (copyright 1998, Gaussian, Inc.),
 the Gaussian(R) 94 system (copyright 1995, Gaussian, Inc.),
 the Gaussian 92(TM) system (copyright 1992, Gaussian, Inc.),
 the Gaussian 90(TM) system (copyright 1990, Gaussian, Inc.),
 the Gaussian 88(TM) system (copyright 1988, Gaussian, Inc.),
 the Gaussian 86(TM) system (copyright 1986, Carnegie Mellon
 University), and the Gaussian 82(TM) system (copyright 1983,
 Carnegie Mellon University). Gaussian is a federally registered
 trademark of Gaussian, Inc.
  
 This software contains proprietary and confidential information,
 including trade secrets, belonging to Gaussian, Inc.
  
 This software is provided under written license and may be
 used, copied, transmitted, or stored only in accord with that
 written license.
  
 The following legend is applicable only to US Government
 contracts under FAR:
  
                    RESTRICTED RIGHTS LEGEND
  
 Use, reproduction and disclosure by the US Government is
 subject to restrictions as set forth in subparagraphs (a)
 and (c) of the Commercial Computer Software - Restricted
 Rights clause in FAR 52.227-19.
  
 Gaussian, Inc.
 340 Quinnipiac St., Bldg. 40, Wallingford CT 06492
  
  
 ---------------------------------------------------------------
 Warning -- This program may not be used in any manner that
 competes with the business of Gaussian, Inc. or will provide
 assistance to any competitor of Gaussian, Inc.  The licensee
 of this program is prohibited from giving any competitor of
 Gaussian, Inc. access to this program.  By using this program,
 the user acknowledges that Gaussian, Inc. is engaged in the
 business of creating and licensing software in the field of
 computational chemistry and represents and warrants to the
 licensee that it is not a competitor of Gaussian, Inc. and that
 it will not use this program in any manner prohibited above.
 ---------------------------------------------------------------
  

 Cite this work as:
 Gaussian 16, Revision B.01,
 M. J. Frisch, G. W. Trucks, H. B. Schlegel, G. E. Scuseria, 
 M. A. Robb, J. R. Cheeseman, G. Scalmani, V. Barone, 
 G. A. Petersson, H. Nakatsuji, X. Li, M. Caricato, A. V. Marenich, 
 J. Bloino, B. G. Janesko, R. Gomperts, B. Mennucci, H. P. Hratchian, 
 J. V. Ortiz, A. F. Izmaylov, J. L. Sonnenberg, D. Williams-Young, 
 F. Ding, F. Lipparini, F. Egidi, J. Goings, B. Peng, A. Petrone, 
 T. Henderson, D. Ranasinghe, V. G. Zakrzewski, J. Gao, N. Rega, 
 G. Zheng, W. Liang, M. Hada, M. Ehara, K. Toyota, R. Fukuda, 
 J. Hasegawa, M. Ishida, T. Nakajima, Y. Honda, O. Kitao, H. Nakai, 
 T. Vreven, K. Throssell, J. A. Montgomery, Jr., J. E. Peralta, 
 F. Ogliaro, M. J. Bearpark, J. J. Heyd, E. N. Brothers, K. N. Kudin, 
 V. N. Staroverov, T. A. Keith, R. Kobayashi, J. Normand, 
 K. Raghavachari, A. P. Rendell, J. C. Burant, S. S. Iyengar, 
 J. Tomasi, M. Cossi, J. M. Millam, M. Klene, C. Adamo, R. Cammi, 
 J. W. Ochterski, R. L. Martin, K. Morokuma, O. Farkas, 
 J. B. Foresman, and D. J. Fox, Gaussian, Inc., Wallingford CT, 2016.
 
 ******************************************
 Gaussian 16:  ES64L-G16RevB.01 20-Dec-2017
                23-Dec-2020 
 ******************************************
 %NProcShared=16
 Will use up to   16 processors via shared memory.
 %Mem=6GB
 ----------------------------------------------------------------------
 # B3LYP/6-31+G* IRC=(CALCALL, maxpoints=40, StepSize=15, maxcyc=100, R
 eport=Cartesians)
 ----------------------------------------------------------------------
 1/6=100,10=4,18=10,26=3,38=1,39=15,42=40,44=3,71=1,129=10,172=1/1,23;
 2/12=2,17=6,18=5,29=1,40=1/2;
 3/5=1,6=6,7=11,11=2,25=1,30=1,71=2,74=-5,140=1/1,2,3;
 4//1;
 5/5=2,38=5/2;
 8/6=4,10=90,11=11/1;
 11/6=1,8=1,9=11,15=111,16=1/1,2,10;
 10/6=1,13=1/2;
 6/7=2,8=2,9=2,10=2,18=1,28=1/1;
 7/10=1,25=1/1,2,3,16;
 1/6=100,10=4,18=10,26=3,39=15,42=40,44=3,71=1,129=10/23(2);
 2/29=1/2;
 99/5=20/99;
 2/29=1/2;
 3/5=1,6=6,7=11,11=2,25=1,30=1,71=2,74=-5,140=1/1,2,3;
 4/5=5,16=3,69=1/1;
 5/5=2,38=5/2;
 8/6=4,10=90,11=11/1;
 11/6=1,8=1,9=11,15=111,16=1/1,2,10;
 10/6=1,13=1/2;
 7/10=1,25=1/1,2,3,16;
 1/6=100,10=4,18=10,26=3,39=15,42=40,44=3,71=1,129=10/23(-8);
 2/29=1/2;
 6/7=2,8=2,9=2,10=2,18=1,19=2,28=1/1;
 99/5=20/99;
 -----------
 pp_24_0 IRC
 -----------
 Symbolic Z-matrix:
 Charge =  0 Multiplicity = 1
 C                     3.20604   0.446     0.00002 
 C                    -1.53122  -1.34137   0.00001 
 C                    -1.48721   0.17652  0. 
 O                     2.31048  -0.51619  -0.00001 
 O                    -0.24319   0.72614  -0.00002 
 O                    -2.46281   0.88819   0.00001 
 H                     0.45674   0.04196  -0.00003 
 H                     2.76737   1.46647   0.00007 
 H                     3.43358  -0.82187  -0.00004 
 H                    -1.02428  -1.74296   0.88593 
 H                    -2.57053  -1.67267   0.00003 
 H                    -1.02431  -1.74297  -0.88592 
 
 IRC-IRC-IRC-IRC-IRC-IRC-IRC-IRC-IRC-IRC-IRC-IRC-IRC-IRC-IRC-IRC-IRC-IRC
 ------------------------------------------------------------------------
 INPUT DATA FOR L123
 ------------------------------------------------------------------------
 GENERAL PARAMETERS:
 Follow reaction path in both directions.
 Maximum points per path      =  40
 Step size                    =   0.150 bohr
 Integration scheme           = HPC                                 
    Redo corrector integration= Yes                                 
    DWI Weight Power          =  2
    DWI will use Hessian update vectors when possible.
    Max correction cycles     = 100
 Initial Hessian              = CalcFC
 Hessian evaluation           = Analytic at all predictor steps
                              = Update at all corrector steps
 Hessian updating method      = Bofill                              
 ------------------------------------------------------------------------
 IRC-IRC-IRC-IRC-IRC-IRC-IRC-IRC-IRC-IRC-IRC-IRC-IRC-IRC-IRC-IRC-IRC-IRC
                          Input orientation:                          
 ---------------------------------------------------------------------
 Center     Atomic      Atomic             Coordinates (Angstroms)
 Number     Number       Type             X           Y           Z
 ---------------------------------------------------------------------
      1          6           0        3.206036    0.445997    0.000024
      2          6           0       -1.531224   -1.341370    0.000012
      3          6           0       -1.487208    0.176520   -0.000001
      4          8           0        2.310477   -0.516190   -0.000014
      5          8           0       -0.243187    0.726141   -0.000023
      6          8           0       -2.462813    0.888194    0.000006
      7          1           0        0.456736    0.041956   -0.000027
      8          1           0        2.767366    1.466467    0.000068
      9          1           0        3.433584   -0.821866   -0.000040
     10          1           0       -1.024278   -1.742956    0.885926
     11          1           0       -2.570532   -1.672668    0.000033
     12          1           0       -1.024311   -1.742969   -0.885915
 ---------------------------------------------------------------------
                    Distance matrix (angstroms):
                    1          2          3          4          5
     1  C    0.000000
     2  C    5.063231   0.000000
     3  C    4.700974   1.518528   0.000000
     4  O    1.314469   3.929324   3.860344   0.000000
     5  O    3.460581   2.435907   1.360026   2.839821   0.000000
     6  O    5.686070   2.416364   1.207595   4.975600   2.225534
     7  H    2.778831   2.421895   1.948596   1.935945   0.978775
     8  H    1.110761   5.134377   4.445825   2.034619   3.100244
     9  H    1.288121   4.991914   5.021053   1.163962   3.989357
    10  H    4.844780   1.096863   2.164153   3.662026   2.737051
    11  H    6.152843   1.090834   2.143149   5.016143   3.342278
    12  H    4.844822   1.096863   2.164152   3.662051   2.737054
                    6          7          8          9         10
     6  O    0.000000
     7  H    3.039718   0.000000
     8  H    5.262050   2.714451   0.000000
     9  H    6.139365   3.099647   2.383341   0.000000
    10  H    3.126849   2.482786   5.045959   4.637443   0.000000
    11  H    2.563127   3.479122   6.192522   6.064097   1.783437
    12  H    3.126845   2.482792   5.046014   4.637460   1.771841
                   11         12
    11  H    0.000000
    12  H    1.783436   0.000000
 Symmetry turned off by external request.
 Stoichiometry    C3H6O3
 Framework group  C1[X(C3H6O3)]
 Deg. of freedom    30
 Full point group                 C1      NOp   1
 Rotational constants (GHZ):           8.0757184           1.2901109           1.1202040
 Standard basis: 6-31+G(d) (6D, 7F)
   126 basis functions,   216 primitive gaussians,   126 cartesian basis functions
    24 alpha electrons       24 beta electrons
       nuclear repulsion energy       218.1726450526 Hartrees.
 NAtoms=   12 NActive=   12 NUniq=   12 SFac= 1.00D+00 NAtFMM=   60 NAOKFM=F Big=F
 Integral buffers will be    131072 words long.
 Raffenetti 2 integral format.
 Two-electron integral symmetry is turned off.
 One-electron integrals computed using PRISM.
 NBasis=   126 RedAO= T EigKep=  1.70D-04  NBF=   126
 NBsUse=   126 1.00D-06 EigRej= -1.00D+00 NBFU=   126
 ExpMin= 4.38D-02 ExpMax= 5.48D+03 ExpMxC= 8.25D+02 IAcc=3 IRadAn=         5 AccDes= 0.00D+00
 Harris functional with IExCor=  402 and IRadAn=       5 diagonalized for initial guess.
 HarFok:  IExCor=  402 AccDes= 0.00D+00 IRadAn=         5 IDoV= 1 UseB2=F ITyADJ=14
 ICtDFT=  3500011 ScaDFX=  1.000000  1.000000  1.000000  1.000000
 FoFCou: FMM=F IPFlag=           0 FMFlag=      100000 FMFlg1=           0
         NFxFlg=           0 DoJE=T BraDBF=F KetDBF=T FulRan=T
         wScrn=  0.000000 ICntrl=       500 IOpCl=  0 I1Cent=   200000004 NGrid=           0
         NMat0=    1 NMatS0=      1 NMatT0=    0 NMatD0=    1 NMtDS0=    0 NMtDT0=    0
 Symmetry not used in FoFCou.
 Keep R1 ints in memory in canonical form, NReq=47237243.
 Requested convergence on RMS density matrix=1.00D-08 within 128 cycles.
 Requested convergence on MAX density matrix=1.00D-06.
 Requested convergence on             energy=1.00D-06.
 No special actions if energy rises.
 SCF Done:  E(RB3LYP) =  -343.459768805     A.U. after   13 cycles
            NFock= 13  Conv=0.32D-08     -V/T= 2.0091
 DoSCS=F DFT=T ScalE2(SS,OS)=  1.000000  1.000000
 Range of M.O.s used for correlation:     1   126
 NBasis=   126 NAE=    24 NBE=    24 NFC=     0 NFV=     0
 NROrb=    126 NOA=    24 NOB=    24 NVA=   102 NVB=   102

 **** Warning!!: The largest alpha MO coefficient is  0.23813086D+02

 Symmetrizing basis deriv contribution to polar:
 IMax=3 JMax=2 DiffMx= 0.00D+00
 G2DrvN: will do    13 centers at a time, making    1 passes.
 Calling FoFCou, ICntrl=  3107 FMM=F I1Cent=   0 AccDes= 0.00D+00.
 End of G2Drv F.D. properties file   721 does not exist.
 End of G2Drv F.D. properties file   722 does not exist.
 End of G2Drv F.D. properties file   788 does not exist.
          IDoAtm=111111111111
          Differentiating once with respect to nuclear coordinates.
 Keep R1 ints in memory in canonical form, NReq=47193300.
          There are    39 degrees of freedom in the 1st order CPHF.  IDoFFX=6 NUNeed=     0.
     33 vectors produced by pass  0 Test12= 6.28D-15 2.56D-09 XBig12= 1.91D-01 2.19D-01.
 AX will form    33 AO Fock derivatives at one time.
     33 vectors produced by pass  1 Test12= 6.28D-15 2.56D-09 XBig12= 3.89D-02 9.77D-02.
     33 vectors produced by pass  2 Test12= 6.28D-15 2.56D-09 XBig12= 3.06D-04 3.93D-03.
     33 vectors produced by pass  3 Test12= 6.28D-15 2.56D-09 XBig12= 8.55D-07 1.95D-04.
     33 vectors produced by pass  4 Test12= 6.28D-15 2.56D-09 XBig12= 1.44D-09 6.61D-06.
     26 vectors produced by pass  5 Test12= 6.28D-15 2.56D-09 XBig12= 1.71D-12 2.11D-07.
      5 vectors produced by pass  6 Test12= 6.28D-15 2.56D-09 XBig12= 1.56D-15 9.41D-09.
 InvSVY:  IOpt=1 It=  1 EMax= 1.78D-15
 Solved reduced A of dimension   196 with    33 vectors.
 End of Minotr F.D. properties file   721 does not exist.
 End of Minotr F.D. properties file   722 does not exist.
 End of Minotr F.D. properties file   788 does not exist.

 **********************************************************************

            Population analysis using the SCF Density.

 **********************************************************************

 Alpha  occ. eigenvalues --  -19.25648 -19.19918 -19.14349 -10.32800 -10.31736
 Alpha  occ. eigenvalues --  -10.21183  -1.14022  -1.10238  -1.02241  -0.75880
 Alpha  occ. eigenvalues --   -0.64791  -0.62872  -0.58185  -0.51794  -0.47329
 Alpha  occ. eigenvalues --   -0.47016  -0.46584  -0.45005  -0.42280  -0.40050
 Alpha  occ. eigenvalues --   -0.37878  -0.32156  -0.27963  -0.26662
 Alpha virt. eigenvalues --   -0.10654  -0.03051   0.00011   0.00803   0.02382
 Alpha virt. eigenvalues --    0.03959   0.04367   0.05255   0.05903   0.06821
 Alpha virt. eigenvalues --    0.08478   0.09161   0.09731   0.10390   0.11740
 Alpha virt. eigenvalues --    0.14469   0.15478   0.18094   0.19642   0.20071
 Alpha virt. eigenvalues --    0.21310   0.23711   0.24176   0.24539   0.25978
 Alpha virt. eigenvalues --    0.27241   0.28408   0.29350   0.29531   0.31340
 Alpha virt. eigenvalues --    0.33727   0.34292   0.36963   0.38364   0.41445
 Alpha virt. eigenvalues --    0.49117   0.62307   0.62618   0.63161   0.64433
 Alpha virt. eigenvalues --    0.67062   0.71151   0.71886   0.78911   0.80036
 Alpha virt. eigenvalues --    0.85828   0.90863   0.94730   0.98890   1.05675
 Alpha virt. eigenvalues --    1.08527   1.09849   1.10902   1.11349   1.14675
 Alpha virt. eigenvalues --    1.14687   1.16591   1.26374   1.27765   1.30814
 Alpha virt. eigenvalues --    1.33476   1.37853   1.39913   1.41913   1.42793
 Alpha virt. eigenvalues --    1.46646   1.49789   1.50291   1.57814   1.60959
 Alpha virt. eigenvalues --    1.66656   1.71813   1.76208   1.79984   1.80911
 Alpha virt. eigenvalues --    1.83748   1.85532   1.96177   1.97369   2.02209
 Alpha virt. eigenvalues --    2.07814   2.15036   2.19648   2.21978   2.25215
 Alpha virt. eigenvalues --    2.38701   2.40834   2.42096   2.44795   2.51664
 Alpha virt. eigenvalues --    2.63730   2.73239   2.83969   2.85029   3.07636
 Alpha virt. eigenvalues --    3.12596   4.01666   4.15772   4.18643   4.20334
 Alpha virt. eigenvalues --    4.31366   4.53841
          Condensed to atoms (all electrons):
               1          2          3          4          5          6
     1  C    5.913390  -0.004763   0.000117  -0.188385  -0.003961   0.000588
     2  C   -0.004763   5.886648   0.041354   0.017997  -0.144651  -0.104849
     3  C    0.000117   0.041354   4.847162  -0.017406   0.106663   0.486852
     4  O   -0.188385   0.017997  -0.017406   8.567175   0.006072  -0.001218
     5  O   -0.003961  -0.144651   0.106663   0.006072   8.645413  -0.102662
     6  O    0.000588  -0.104849   0.486852  -0.001218  -0.102662   8.168498
     7  H    0.001254   0.012580  -0.010713   0.029890   0.112746   0.004399
     8  H    0.321234  -0.002068   0.001066  -0.058718   0.006994   0.000163
     9  H    0.225203  -0.000228   0.000442   0.014106  -0.002288  -0.000017
    10  H    0.000070   0.379518  -0.047981  -0.000256   0.003768   0.001367
    11  H    0.000080   0.375299  -0.034004   0.000100   0.007425  -0.002688
    12  H    0.000070   0.379518  -0.047982  -0.000256   0.003768   0.001367
               7          8          9         10         11         12
     1  C    0.001254   0.321234   0.225203   0.000070   0.000080   0.000070
     2  C    0.012580  -0.002068  -0.000228   0.379518   0.375299   0.379518
     3  C   -0.010713   0.001066   0.000442  -0.047981  -0.034004  -0.047982
     4  O    0.029890  -0.058718   0.014106  -0.000256   0.000100  -0.000256
     5  O    0.112746   0.006994  -0.002288   0.003768   0.007425   0.003768
     6  O    0.004399   0.000163  -0.000017   0.001367  -0.002688   0.001367
     7  H    0.318112  -0.001554   0.001582  -0.001150   0.000319  -0.001150
     8  H   -0.001554   0.534988  -0.002286   0.000001  -0.000000   0.000001
     9  H    0.001582  -0.002286   0.319893  -0.000001   0.000000  -0.000001
    10  H   -0.001150   0.000001  -0.000001   0.484228  -0.020912  -0.029925
    11  H    0.000319  -0.000000   0.000000  -0.020912   0.448285  -0.020912
    12  H   -0.001150   0.000001  -0.000001  -0.029925  -0.020912   0.484228
 Mulliken charges:
               1
     1  C   -0.264898
     2  C   -0.836356
     3  C    0.674429
     4  O   -0.369101
     5  O   -0.639287
     6  O   -0.451801
     7  H    0.533685
     8  H    0.200179
     9  H    0.443595
    10  H    0.231272
    11  H    0.247008
    12  H    0.231273
 Sum of Mulliken charges =  -0.00000
 Mulliken charges with hydrogens summed into heavy atoms:
               1
     1  C   -0.064719
     2  C   -0.126803
     3  C    0.674429
     4  O    0.074494
     5  O   -0.105602
     6  O   -0.451801
 APT charges:
               1
     1  C   -0.451330
     2  C   -1.396589
     3  C    0.092896
     4  O   -0.351522
     5  O   -0.601599
     6  O   -0.056099
     7  H    0.536634
     8  H    0.263027
     9  H    0.575108
    10  H    0.362453
    11  H    0.664562
    12  H    0.362459
 Sum of APT charges =  -0.00000
 APT charges with hydrogens summed into heavy atoms:
               1
     1  C   -0.188303
     2  C   -0.007115
     3  C    0.092896
     4  O    0.223587
     5  O   -0.064965
     6  O   -0.056099
 Electronic spatial extent (au):  <R**2>=            968.3798
 Charge=             -0.0000 electrons
 Dipole moment (field-independent basis, Debye):
    X=              3.6817    Y=             -3.3920    Z=              0.0000  Tot=              5.0061
 Quadrupole moment (field-independent basis, Debye-Ang):
   XX=            -42.3623   YY=            -36.9211   ZZ=            -35.9439
   XY=              5.4257   XZ=             -0.0000   YZ=              0.0001
 Traceless Quadrupole moment (field-independent basis, Debye-Ang):
   XX=             -3.9532   YY=              1.4880   ZZ=              2.4652
   XY=              5.4257   XZ=             -0.0000   YZ=              0.0001
 Octapole moment (field-independent basis, Debye-Ang**2):
  XXX=              9.5975  YYY=             -1.7932  ZZZ=             -0.0001  XYY=              8.2249
  XXY=            -20.4165  XXZ=             -0.0005  XZZ=             -1.7522  YZZ=             -0.1453
  YYZ=             -0.0000  XYZ=              0.0004
 Hexadecapole moment (field-independent basis, Debye-Ang**3):
 XXXX=          -1214.8977 YYYY=           -207.3532 ZZZZ=            -41.6172 XXXY=            -15.7706
 XXXZ=             -0.0022 YYYX=             -2.7896 YYYZ=              0.0003 ZZZX=             -0.0001
 ZZZY=              0.0001 XXYY=           -190.1567 XXZZ=           -180.4056 YYZZ=            -39.9848
 XXYZ=              0.0011 YYXZ=             -0.0001 ZZXY=             -3.2421
 N-N= 2.181726450526D+02 E-N=-1.240430560533D+03  KE= 3.403515789644D+02
  Exact polarizability:   0.000   0.000   0.000   0.000   0.000   0.000
 Approx polarizability:  84.245   1.022  77.285   0.000   0.001  47.410
 Calling FoFJK, ICntrl=    100127 FMM=F ISym2X=0 I1Cent= 0 IOpClX= 0 NMat=1 NMatS=1 NMatT=0.
 -------------------------------------------------------------------
 Center     Atomic                   Forces (Hartrees/Bohr)
 Number     Number              X              Y              Z
 -------------------------------------------------------------------
      1        6          -0.000000083    0.000000179   -0.000000191
      2        6           0.000000267   -0.000000372   -0.000000045
      3        6           0.000000485   -0.000000507   -0.000000037
      4        8          -0.000000047   -0.000000219   -0.000000094
      5        8          -0.000000183   -0.000000037    0.000000019
      6        8          -0.000000445    0.000000215    0.000000033
      7        1           0.000000012   -0.000000006    0.000000014
      8        1          -0.000000038    0.000000457    0.000000098
      9        1           0.000000063    0.000000009    0.000000165
     10        1          -0.000000130    0.000000166   -0.000000227
     11        1           0.000000168   -0.000000040    0.000000047
     12        1          -0.000000071    0.000000154    0.000000218
 -------------------------------------------------------------------
 Cartesian Forces:  Max     0.000000507 RMS     0.000000209
 IRC-IRC-IRC-IRC-IRC-IRC-IRC-IRC-IRC-IRC-IRC-IRC-IRC-IRC-IRC-IRC-IRC-IRC
          ******** Start new reaction path calculation ********
 Supplied step size of   0.1500 bohr.
    Integration on MW PES will use step size of   0.1582 sqrt(amu)*bohr.
 Point Number:   0          Path Number:   1
 Calculating another point on the path.
 IRC-IRC-IRC-IRC-IRC-IRC-IRC-IRC-IRC-IRC-IRC-IRC-IRC-IRC-IRC-IRC-IRC-IRC
                          Input orientation:                          
 ---------------------------------------------------------------------
 Center     Atomic      Atomic             Coordinates (Angstroms)
 Number     Number       Type             X           Y           Z
 ---------------------------------------------------------------------
      1          6           0        3.230187    0.402756    0.000025
      2          6           0       -1.508768   -1.390592    0.000012
      3          6           0       -1.464917    0.127264   -0.000001
      4          8           0        2.336539   -0.566888   -0.000014
      5          8           0       -0.220674    0.676972   -0.000023
      6          8           0       -2.440315    0.838962    0.000006
      7          1           0        0.476964   -0.007798   -0.000027
      8          1           0        2.776620    1.416264    0.000068
      9          1           0        3.393486   -0.917511   -0.000041
     10          1           0       -1.001928   -1.792198    0.886008
     11          1           0       -2.548050   -1.721910    0.000033
     12          1           0       -1.001961   -1.792211   -0.885996
 ---------------------------------------------------------------------
                    Distance matrix (angstroms):
                    1          2          3          4          5
     1  C    0.000000
     2  C    5.066931   0.000000
     3  C    4.703180   1.518489   0.000000
     4  O    1.318642   3.932541   3.864314   0.000000
     5  O    3.461738   2.435982   1.360265   2.843682   0.000000
     6  O    5.687255   2.416338   1.207441   4.979433   2.225545
     7  H    2.783665   2.419762   1.946573   1.941804   0.977552
     8  H    1.110370   5.122792   4.433076   2.031395   3.087122
     9  H    1.330327   4.925028   4.969471   1.113585   3.950256
    10  H    4.849081   1.096887   2.164187   3.664940   2.737191
    11  H    6.156478   1.090816   2.143040   5.019292   3.342352
    12  H    4.849123   1.096887   2.164187   3.664965   2.737193
                    6          7          8          9         10
     6  O    0.000000
     7  H    3.037683   0.000000
     8  H    5.248780   2.704879   0.000000
     9  H    6.092490   3.055107   2.413924   0.000000
    10  H    3.126813   2.481182   5.035529   4.568351   0.000000
    11  H    2.563136   3.476908   6.180635   5.995741   1.783363
    12  H    3.126809   2.481188   5.035584   4.568367   1.772004
                   11         12
    11  H    0.000000
    12  H    1.783362   0.000000
 Symmetry turned off by external request.
 Stoichiometry    C3H6O3
 Framework group  C1[X(C3H6O3)]
 Deg. of freedom    30
 Full point group                 C1      NOp   1
 Rotational constants (GHZ):           8.0541436           1.2904598           1.1200523
 Standard basis: 6-31+G(d) (6D, 7F)
   126 basis functions,   216 primitive gaussians,   126 cartesian basis functions
    24 alpha electrons       24 beta electrons
       nuclear repulsion energy       218.2047189578 Hartrees.
 NAtoms=   12 NActive=   12 NUniq=   12 SFac= 1.00D+00 NAtFMM=   60 NAOKFM=F Big=F
 Integral buffers will be    131072 words long.
 Raffenetti 2 integral format.
 Two-electron integral symmetry is turned off.
 One-electron integrals computed using PRISM.
 NBasis=   126 RedAO= T EigKep=  1.71D-04  NBF=   126
 NBsUse=   126 1.00D-06 EigRej= -1.00D+00 NBFU=   126
 Initial guess from the checkpoint file:  "/scratch/bell/zhao922/YARP/paper-example/KHP-network/pp_0/IRC-folder/Gau-50954.chk"
 B after Tr=     0.040886   -0.093952    0.000001
         Rot=    1.000000    0.000000   -0.000000    0.000196 Ang=   0.02 deg.
 ExpMin= 4.38D-02 ExpMax= 5.48D+03 ExpMxC= 8.25D+02 IAcc=3 IRadAn=         5 AccDes= 0.00D+00
 Harris functional with IExCor=  402 and IRadAn=       5 diagonalized for initial guess.
 HarFok:  IExCor=  402 AccDes= 0.00D+00 IRadAn=         5 IDoV= 1 UseB2=F ITyADJ=14
 ICtDFT=  3500011 ScaDFX=  1.000000  1.000000  1.000000  1.000000
 FoFCou: FMM=F IPFlag=           0 FMFlag=      100000 FMFlg1=           0
         NFxFlg=           0 DoJE=T BraDBF=F KetDBF=T FulRan=T
         wScrn=  0.000000 ICntrl=       500 IOpCl=  0 I1Cent=   200000004 NGrid=           0
         NMat0=    1 NMatS0=      1 NMatT0=    0 NMatD0=    1 NMtDS0=    0 NMtDT0=    0
 Symmetry not used in FoFCou.
 Keep R1 ints in memory in canonical form, NReq=47237243.
 Requested convergence on RMS density matrix=1.00D-08 within 128 cycles.
 Requested convergence on MAX density matrix=1.00D-06.
 Requested convergence on             energy=1.00D-06.
 No special actions if energy rises.
 SCF Done:  E(RB3LYP) =  -343.461772208     A.U. after   11 cycles
            NFock= 11  Conv=0.60D-08     -V/T= 2.0091
 DoSCS=F DFT=T ScalE2(SS,OS)=  1.000000  1.000000
 Range of M.O.s used for correlation:     1   126
 NBasis=   126 NAE=    24 NBE=    24 NFC=     0 NFV=     0
 NROrb=    126 NOA=    24 NOB=    24 NVA=   102 NVB=   102

 **** Warning!!: The largest alpha MO coefficient is  0.23669033D+02

 Symmetrizing basis deriv contribution to polar:
 IMax=3 JMax=2 DiffMx= 0.00D+00
 G2DrvN: will do    13 centers at a time, making    1 passes.
 Calling FoFCou, ICntrl=  3107 FMM=F I1Cent=   0 AccDes= 0.00D+00.
 End of G2Drv F.D. properties file   721 does not exist.
 End of G2Drv F.D. properties file   722 does not exist.
 End of G2Drv F.D. properties file   788 does not exist.
          IDoAtm=111111111111
          Differentiating once with respect to nuclear coordinates.
 Keep R1 ints in memory in canonical form, NReq=47193300.
          There are    39 degrees of freedom in the 1st order CPHF.  IDoFFX=6 NUNeed=     0.
     33 vectors produced by pass  0 Test12= 6.28D-15 2.56D-09 XBig12= 1.91D-01 2.41D-01.
 AX will form    33 AO Fock derivatives at one time.
     33 vectors produced by pass  1 Test12= 6.28D-15 2.56D-09 XBig12= 4.75D-02 9.92D-02.
     33 vectors produced by pass  2 Test12= 6.28D-15 2.56D-09 XBig12= 2.74D-04 3.59D-03.
     33 vectors produced by pass  3 Test12= 6.28D-15 2.56D-09 XBig12= 8.64D-07 2.27D-04.
     33 vectors produced by pass  4 Test12= 6.28D-15 2.56D-09 XBig12= 1.67D-09 6.60D-06.
     26 vectors produced by pass  5 Test12= 6.28D-15 2.56D-09 XBig12= 1.69D-12 2.39D-07.
      5 vectors produced by pass  6 Test12= 6.28D-15 2.56D-09 XBig12= 1.56D-15 9.32D-09.
 InvSVY:  IOpt=1 It=  1 EMax= 1.78D-15
 Solved reduced A of dimension   196 with    33 vectors.
 End of Minotr F.D. properties file   721 does not exist.
 End of Minotr F.D. properties file   722 does not exist.
 End of Minotr F.D. properties file   788 does not exist.
 Calling FoFJK, ICntrl=    100127 FMM=F ISym2X=0 I1Cent= 0 IOpClX= 0 NMat=1 NMatS=1 NMatT=0.
 -------------------------------------------------------------------
 Center     Atomic                   Forces (Hartrees/Bohr)
 Number     Number              X              Y              Z
 -------------------------------------------------------------------
      1        6           0.005321598    0.020697745    0.000000792
      2        6           0.000045460   -0.000005759   -0.000000045
      3        6          -0.000516638   -0.000096776   -0.000000030
      4        8           0.017198687   -0.005878672   -0.000000577
      5        8           0.000265758    0.000245142    0.000000029
      6        8           0.000237644   -0.000049719    0.000000028
      7        1          -0.000609448   -0.000175204   -0.000000020
      8        1          -0.003936385   -0.000480013    0.000000116
      9        1          -0.017959371   -0.014237568   -0.000000332
     10        1          -0.000029084   -0.000005709    0.000024729
     11        1           0.000010805   -0.000007746    0.000000047
     12        1          -0.000029025   -0.000005721   -0.000024738
 -------------------------------------------------------------------
 Cartesian Forces:  Max     0.020697745 RMS     0.006075716
 IRC-IRC-IRC-IRC-IRC-IRC-IRC-IRC-IRC-IRC-IRC-IRC-IRC-IRC-IRC-IRC-IRC-IRC
 Pt  1 Step number   1 out of a maximum of 100
 Modified Bulirsch-Stoer Extrapolation Cycles:
    EPS =    0.000010000000000
      PEZero:  N= 2 I= 1 D=  4.12D-04 Err=  9.06D-04
      PEZero:  N= 3 I= 2 D=  4.12D-04 Err=  6.04D-04
      PEZero:  N= 3 I= 1 D=  8.24D-04 Err=  3.78D-08
 Maximum DWI energy   std dev =  0.000018287 at pt     1
 Maximum DWI gradient std dev =  0.005736652 at pt     1
 CORRECTOR INTEGRATION CONVERGENCE:
   Recorrection delta-x convergence threshold:    0.010000
   Delta-x Convergence Met
 Point Number:   1          Path Number:   1
   CHANGE IN THE REACTION COORDINATE =    0.15815
   NET REACTION COORDINATE UP TO THIS POINT =    0.15815
  # OF POINTS ALONG THE PATH =   1
  # OF STEPS =   1

 Calculating another point on the path.
 IRC-IRC-IRC-IRC-IRC-IRC-IRC-IRC-IRC-IRC-IRC-IRC-IRC-IRC-IRC-IRC-IRC-IRC
                          Input orientation:                          
 ---------------------------------------------------------------------
 Center     Atomic      Atomic             Coordinates (Angstroms)
 Number     Number       Type             X           Y           Z
 ---------------------------------------------------------------------
      1          6           0        3.231654    0.408574    0.000025
      2          6           0       -1.508755   -1.390594    0.000012
      3          6           0       -1.465063    0.127240   -0.000001
      4          8           0        2.340282   -0.568073   -0.000014
      5          8           0       -0.220619    0.677020   -0.000023
      6          8           0       -2.440266    0.838951    0.000006
      7          1           0        0.474889   -0.008353   -0.000027
      8          1           0        2.762985    1.414630    0.000069
      9          1           0        3.332426   -0.966013   -0.000042
     10          1           0       -1.002029   -1.792217    0.886094
     11          1           0       -2.548013   -1.721938    0.000034
     12          1           0       -1.002062   -1.792230   -0.886082
 ---------------------------------------------------------------------
                    Distance matrix (angstroms):
                    1          2          3          4          5
     1  C    0.000000
     2  C    5.070354   0.000000
     3  C    4.705135   1.518462   0.000000
     4  O    1.322265   3.935940   3.868346   0.000000
     5  O    3.462694   2.436047   1.360478   2.847537   0.000000
     6  O    5.688225   2.416316   1.207293   4.983308   2.225547
     7  H    2.788114   2.417733   1.944685   1.947556   0.976457
     8  H    1.109864   5.110484   4.419701   2.027261   3.073427
     9  H    1.378276   4.859764   4.920477   1.068975   3.914548
    10  H    4.853110   1.096911   2.164227   3.668073   2.737323
    11  H    6.159841   1.090800   2.142951   5.022632   3.342419
    12  H    4.853152   1.096911   2.164226   3.668097   2.737326
                    6          7          8          9         10
     6  O    0.000000
     7  H    3.035796   0.000000
     8  H    5.235000   2.694487   0.000000
     9  H    6.048295   3.013740   2.447800   0.000000
    10  H    3.126776   2.479651   5.024364   4.500594   0.000000
    11  H    2.563155   3.474811   6.168043   5.928826   1.783286
    12  H    3.126772   2.479656   5.024420   4.500609   1.772176
                   11         12
    11  H    0.000000
    12  H    1.783285   0.000000
 Symmetry turned off by external request.
 Stoichiometry    C3H6O3
 Framework group  C1[X(C3H6O3)]
 Deg. of freedom    30
 Full point group                 C1      NOp   1
 Rotational constants (GHZ):           8.0326300           1.2907845           1.1198812
 Standard basis: 6-31+G(d) (6D, 7F)
   126 basis functions,   216 primitive gaussians,   126 cartesian basis functions
    24 alpha electrons       24 beta electrons
       nuclear repulsion energy       218.2353039963 Hartrees.
 NAtoms=   12 NActive=   12 NUniq=   12 SFac= 1.00D+00 NAtFMM=   60 NAOKFM=F Big=F
 Integral buffers will be    131072 words long.
 Raffenetti 2 integral format.
 Two-electron integral symmetry is turned off.
 One-electron integrals computed using PRISM.
 NBasis=   126 RedAO= T EigKep=  1.71D-04  NBF=   126
 NBsUse=   126 1.00D-06 EigRej= -1.00D+00 NBFU=   126
 Initial guess from the checkpoint file:  "/scratch/bell/zhao922/YARP/paper-example/KHP-network/pp_0/IRC-folder/Gau-50954.chk"
 B after Tr=    -0.001464   -0.000975   -0.000000
         Rot=    1.000000    0.000000   -0.000000    0.000204 Ang=   0.02 deg.
 ExpMin= 4.38D-02 ExpMax= 5.48D+03 ExpMxC= 8.25D+02 IAcc=3 IRadAn=         5 AccDes= 0.00D+00
 Harris functional with IExCor=  402 and IRadAn=       5 diagonalized for initial guess.
 HarFok:  IExCor=  402 AccDes= 0.00D+00 IRadAn=         5 IDoV= 1 UseB2=F ITyADJ=14
 ICtDFT=  3500011 ScaDFX=  1.000000  1.000000  1.000000  1.000000
 FoFCou: FMM=F IPFlag=           0 FMFlag=      100000 FMFlg1=           0
         NFxFlg=           0 DoJE=T BraDBF=F KetDBF=T FulRan=T
         wScrn=  0.000000 ICntrl=       500 IOpCl=  0 I1Cent=   200000004 NGrid=           0
         NMat0=    1 NMatS0=      1 NMatT0=    0 NMatD0=    1 NMtDS0=    0 NMtDT0=    0
 Symmetry not used in FoFCou.
 Keep R1 ints in memory in canonical form, NReq=47237243.
 Requested convergence on RMS density matrix=1.00D-08 within 128 cycles.
 Requested convergence on MAX density matrix=1.00D-06.
 Requested convergence on             energy=1.00D-06.
 No special actions if energy rises.
 SCF Done:  E(RB3LYP) =  -343.467102048     A.U. after   11 cycles
            NFock= 11  Conv=0.53D-08     -V/T= 2.0090
 DoSCS=F DFT=T ScalE2(SS,OS)=  1.000000  1.000000
 Range of M.O.s used for correlation:     1   126
 NBasis=   126 NAE=    24 NBE=    24 NFC=     0 NFV=     0
 NROrb=    126 NOA=    24 NOB=    24 NVA=   102 NVB=   102

 **** Warning!!: The largest alpha MO coefficient is  0.23413967D+02

 Symmetrizing basis deriv contribution to polar:
 IMax=3 JMax=2 DiffMx= 0.00D+00
 G2DrvN: will do    13 centers at a time, making    1 passes.
 Calling FoFCou, ICntrl=  3107 FMM=F I1Cent=   0 AccDes= 0.00D+00.
 End of G2Drv F.D. properties file   721 does not exist.
 End of G2Drv F.D. properties file   722 does not exist.
 End of G2Drv F.D. properties file   788 does not exist.
          IDoAtm=111111111111
          Differentiating once with respect to nuclear coordinates.
 Keep R1 ints in memory in canonical form, NReq=47193300.
          There are    39 degrees of freedom in the 1st order CPHF.  IDoFFX=6 NUNeed=     0.
     33 vectors produced by pass  0 Test12= 6.28D-15 2.56D-09 XBig12= 1.91D-01 2.57D-01.
 AX will form    33 AO Fock derivatives at one time.
     33 vectors produced by pass  1 Test12= 6.28D-15 2.56D-09 XBig12= 4.44D-02 8.14D-02.
     33 vectors produced by pass  2 Test12= 6.28D-15 2.56D-09 XBig12= 2.41D-04 3.35D-03.
     33 vectors produced by pass  3 Test12= 6.28D-15 2.56D-09 XBig12= 8.39D-07 2.48D-04.
     33 vectors produced by pass  4 Test12= 6.28D-15 2.56D-09 XBig12= 1.88D-09 7.11D-06.
     27 vectors produced by pass  5 Test12= 6.28D-15 2.56D-09 XBig12= 1.67D-12 2.45D-07.
      6 vectors produced by pass  6 Test12= 6.28D-15 2.56D-09 XBig12= 1.50D-15 9.10D-09.
 InvSVY:  IOpt=1 It=  1 EMax= 1.55D-15
 Solved reduced A of dimension   198 with    33 vectors.
 End of Minotr F.D. properties file   721 does not exist.
 End of Minotr F.D. properties file   722 does not exist.
 End of Minotr F.D. properties file   788 does not exist.
 Calling FoFJK, ICntrl=    100127 FMM=F ISym2X=0 I1Cent= 0 IOpClX= 0 NMat=1 NMatS=1 NMatT=0.
 -------------------------------------------------------------------
 Center     Atomic                   Forces (Hartrees/Bohr)
 Number     Number              X              Y              Z
 -------------------------------------------------------------------
      1        6           0.008542398    0.034707372    0.000001478
      2        6           0.000076081   -0.000016842   -0.000000041
      3        6          -0.000863412   -0.000124386   -0.000000023
      4        8           0.029328083   -0.008179711   -0.000000803
      5        8           0.000359930    0.000408384    0.000000036
      6        8           0.000370820   -0.000080698    0.000000024
      7        1          -0.000980466   -0.000332977   -0.000000044
      8        1          -0.007075475   -0.000975282    0.000000103
      9        1          -0.029670307   -0.025371970   -0.000000766
     10        1          -0.000052748   -0.000008940    0.000044445
     11        1           0.000017823   -0.000016001    0.000000023
     12        1          -0.000052728   -0.000008950   -0.000044432
 -------------------------------------------------------------------
 Cartesian Forces:  Max     0.034707372 RMS     0.010249642
 IRC-IRC-IRC-IRC-IRC-IRC-IRC-IRC-IRC-IRC-IRC-IRC-IRC-IRC-IRC-IRC-IRC-IRC
 Pt  2 Step number   1 out of a maximum of 100
 Modified Bulirsch-Stoer Extrapolation Cycles:
    EPS =    0.000010000000000
      PEZero:  N= 2 I= 1 D=  8.23D-04 Err=  2.55D-05
      PEZero:  N= 3 I= 2 D=  8.23D-04 Err=  1.69D-05
      PEZero:  N= 3 I= 1 D=  1.65D-03 Err=  9.08D-08
 Maximum DWI energy   std dev =  0.000032580 at pt    28
 Maximum DWI gradient std dev =  0.009701654 at pt    17
 CORRECTOR INTEGRATION CONVERGENCE:
   Recorrection delta-x convergence threshold:    0.010000
   Delta-x Convergence Met
 Point Number:   2          Path Number:   1
   CHANGE IN THE REACTION COORDINATE =    0.15809
   NET REACTION COORDINATE UP TO THIS POINT =    0.31624
  # OF POINTS ALONG THE PATH =   2
  # OF STEPS =   1

 Calculating another point on the path.
 IRC-IRC-IRC-IRC-IRC-IRC-IRC-IRC-IRC-IRC-IRC-IRC-IRC-IRC-IRC-IRC-IRC-IRC
                          Input orientation:                          
 ---------------------------------------------------------------------
 Center     Atomic      Atomic             Coordinates (Angstroms)
 Number     Number       Type             X           Y           Z
 ---------------------------------------------------------------------
      1          6           0        3.233035    0.414315    0.000025
      2          6           0       -1.508743   -1.390597    0.000012
      3          6           0       -1.465205    0.127223   -0.000001
      4          8           0        2.344004   -0.568981   -0.000014
      5          8           0       -0.220578    0.677068   -0.000023
      6          8           0       -2.440223    0.838942    0.000006
      7          1           0        0.472965   -0.009017   -0.000027
      8          1           0        2.748424    1.412456    0.000069
      9          1           0        3.273791   -1.017418   -0.000044
     10          1           0       -1.002138   -1.792234    0.886185
     11          1           0       -2.547978   -1.721973    0.000034
     12          1           0       -1.002171   -1.792247   -0.886173
 ---------------------------------------------------------------------
                    Distance matrix (angstroms):
                    1          2          3          4          5
     1  C    0.000000
     2  C    5.073674   0.000000
     3  C    4.707003   1.518445   0.000000
     4  O    1.325612   3.939380   3.872308   0.000000
     5  O    3.463593   2.436105   1.360671   2.851265   0.000000
     6  O    5.689127   2.416299   1.207147   4.987090   2.225540
     7  H    2.792346   2.415768   1.942953   1.953034   0.975558
     8  H    1.109564   5.097115   4.405280   2.022287   3.058720
     9  H    1.432313   4.797072   4.875273   1.032280   3.883542
    10  H    4.857039   1.096933   2.164271   3.671289   2.737453
    11  H    6.163103   1.090788   2.142878   5.026020   3.342483
    12  H    4.857081   1.096933   2.164271   3.671314   2.737456
                    6          7          8          9         10
     6  O    0.000000
     7  H    3.034090   0.000000
     8  H    5.220247   2.682964   0.000000
     9  H    6.007997   2.976827   2.486021   0.000000
    10  H    3.126737   2.478137   5.012181   4.435010   0.000000
    11  H    2.563181   3.472797   6.154390   5.864247   1.783205
    12  H    3.126733   2.478143   5.012236   4.435024   1.772358
                   11         12
    11  H    0.000000
    12  H    1.783205   0.000000
 Symmetry turned off by external request.
 Stoichiometry    C3H6O3
 Framework group  C1[X(C3H6O3)]
 Deg. of freedom    30
 Full point group                 C1      NOp   1
 Rotational constants (GHZ):           8.0106954           1.2910706           1.1196706
 Standard basis: 6-31+G(d) (6D, 7F)
   126 basis functions,   216 primitive gaussians,   126 cartesian basis functions
    24 alpha electrons       24 beta electrons
       nuclear repulsion energy       218.2480018343 Hartrees.
 NAtoms=   12 NActive=   12 NUniq=   12 SFac= 1.00D+00 NAtFMM=   60 NAOKFM=F Big=F
 Integral buffers will be    131072 words long.
 Raffenetti 2 integral format.
 Two-electron integral symmetry is turned off.
 One-electron integrals computed using PRISM.
 NBasis=   126 RedAO= T EigKep=  1.71D-04  NBF=   126
 NBsUse=   126 1.00D-06 EigRej= -1.00D+00 NBFU=   126
 Initial guess from the checkpoint file:  "/scratch/bell/zhao922/YARP/paper-example/KHP-network/pp_0/IRC-folder/Gau-50954.chk"
 B after Tr=    -0.001430   -0.001044   -0.000000
         Rot=    1.000000    0.000000   -0.000000    0.000211 Ang=   0.02 deg.
 ExpMin= 4.38D-02 ExpMax= 5.48D+03 ExpMxC= 8.25D+02 IAcc=3 IRadAn=         5 AccDes= 0.00D+00
 Harris functional with IExCor=  402 and IRadAn=       5 diagonalized for initial guess.
 HarFok:  IExCor=  402 AccDes= 0.00D+00 IRadAn=         5 IDoV= 1 UseB2=F ITyADJ=14
 ICtDFT=  3500011 ScaDFX=  1.000000  1.000000  1.000000  1.000000
 FoFCou: FMM=F IPFlag=           0 FMFlag=      100000 FMFlg1=           0
         NFxFlg=           0 DoJE=T BraDBF=F KetDBF=T FulRan=T
         wScrn=  0.000000 ICntrl=       500 IOpCl=  0 I1Cent=   200000004 NGrid=           0
         NMat0=    1 NMatS0=      1 NMatT0=    0 NMatD0=    1 NMtDS0=    0 NMtDT0=    0
 Symmetry not used in FoFCou.
 Keep R1 ints in memory in canonical form, NReq=47237243.
 Requested convergence on RMS density matrix=1.00D-08 within 128 cycles.
 Requested convergence on MAX density matrix=1.00D-06.
 Requested convergence on             energy=1.00D-06.
 No special actions if energy rises.
 SCF Done:  E(RB3LYP) =  -343.474456289     A.U. after   11 cycles
            NFock= 11  Conv=0.46D-08     -V/T= 2.0090
 DoSCS=F DFT=T ScalE2(SS,OS)=  1.000000  1.000000
 Range of M.O.s used for correlation:     1   126
 NBasis=   126 NAE=    24 NBE=    24 NFC=     0 NFV=     0
 NROrb=    126 NOA=    24 NOB=    24 NVA=   102 NVB=   102

 **** Warning!!: The largest alpha MO coefficient is  0.23041505D+02

 Symmetrizing basis deriv contribution to polar:
 IMax=3 JMax=2 DiffMx= 0.00D+00
 G2DrvN: will do    13 centers at a time, making    1 passes.
 Calling FoFCou, ICntrl=  3107 FMM=F I1Cent=   0 AccDes= 0.00D+00.
 End of G2Drv F.D. properties file   721 does not exist.
 End of G2Drv F.D. properties file   722 does not exist.
 End of G2Drv F.D. properties file   788 does not exist.
          IDoAtm=111111111111
          Differentiating once with respect to nuclear coordinates.
 Keep R1 ints in memory in canonical form, NReq=47193300.
          There are    39 degrees of freedom in the 1st order CPHF.  IDoFFX=6 NUNeed=     0.
     33 vectors produced by pass  0 Test12= 6.28D-15 2.56D-09 XBig12= 1.91D-01 2.70D-01.
 AX will form    33 AO Fock derivatives at one time.
     33 vectors produced by pass  1 Test12= 6.28D-15 2.56D-09 XBig12= 3.09D-02 5.45D-02.
     33 vectors produced by pass  2 Test12= 6.28D-15 2.56D-09 XBig12= 2.02D-04 3.08D-03.
     33 vectors produced by pass  3 Test12= 6.28D-15 2.56D-09 XBig12= 7.45D-07 2.52D-04.
     33 vectors produced by pass  4 Test12= 6.28D-15 2.56D-09 XBig12= 1.94D-09 8.20D-06.
     27 vectors produced by pass  5 Test12= 6.28D-15 2.56D-09 XBig12= 1.64D-12 2.89D-07.
      6 vectors produced by pass  6 Test12= 6.28D-15 2.56D-09 XBig12= 1.45D-15 8.59D-09.
 InvSVY:  IOpt=1 It=  1 EMax= 2.00D-15
 Solved reduced A of dimension   198 with    33 vectors.
 End of Minotr F.D. properties file   721 does not exist.
 End of Minotr F.D. properties file   722 does not exist.
 End of Minotr F.D. properties file   788 does not exist.
 Calling FoFJK, ICntrl=    100127 FMM=F ISym2X=0 I1Cent= 0 IOpClX= 0 NMat=1 NMatS=1 NMatT=0.
 -------------------------------------------------------------------
 Center     Atomic                   Forces (Hartrees/Bohr)
 Number     Number              X              Y              Z
 -------------------------------------------------------------------
      1        6           0.009606941    0.040792899    0.000001769
      2        6           0.000088059   -0.000035496   -0.000000035
      3        6          -0.001005846   -0.000076696   -0.000000023
      4        8           0.034944160   -0.006472738   -0.000000788
      5        8           0.000267863    0.000470060    0.000000042
      6        8           0.000377780   -0.000085701    0.000000023
      7        1          -0.001064047   -0.000473633   -0.000000059
      8        1          -0.009179813   -0.001586396    0.000000097
      9        1          -0.033916320   -0.032490679   -0.000001057
     10        1          -0.000069528   -0.000008540    0.000056889
     11        1           0.000020264   -0.000024528    0.000000018
     12        1          -0.000069513   -0.000008552   -0.000056877
 -------------------------------------------------------------------
 Cartesian Forces:  Max     0.040792899 RMS     0.012150599
 IRC-IRC-IRC-IRC-IRC-IRC-IRC-IRC-IRC-IRC-IRC-IRC-IRC-IRC-IRC-IRC-IRC-IRC
 Pt  3 Step number   1 out of a maximum of 100
 Modified Bulirsch-Stoer Extrapolation Cycles:
    EPS =    0.000010000000000
      PEZero:  N= 2 I= 1 D=  8.24D-04 Err=  3.29D-05
      PEZero:  N= 3 I= 2 D=  8.24D-04 Err=  2.18D-05
      PEZero:  N= 3 I= 1 D=  1.65D-03 Err=  1.21D-07
 Maximum DWI energy   std dev =  0.000031380 at pt    45
 Maximum DWI gradient std dev =  0.007206748 at pt    25
 CORRECTOR INTEGRATION CONVERGENCE:
   Recorrection delta-x convergence threshold:    0.010000
   Delta-x Convergence Met
 Point Number:   3          Path Number:   1
   CHANGE IN THE REACTION COORDINATE =    0.15809
   NET REACTION COORDINATE UP TO THIS POINT =    0.47433
  # OF POINTS ALONG THE PATH =   3
  # OF STEPS =   1

 Calculating another point on the path.
 IRC-IRC-IRC-IRC-IRC-IRC-IRC-IRC-IRC-IRC-IRC-IRC-IRC-IRC-IRC-IRC-IRC-IRC
                          Input orientation:                          
 ---------------------------------------------------------------------
 Center     Atomic      Atomic             Coordinates (Angstroms)
 Number     Number       Type             X           Y           Z
 ---------------------------------------------------------------------
      1          6           0        3.234328    0.419886    0.000025
      2          6           0       -1.508732   -1.390604    0.000012
      3          6           0       -1.465341    0.127219   -0.000001
      4          8           0        2.347679   -0.569479   -0.000014
      5          8           0       -0.220557    0.677111   -0.000023
      6          8           0       -2.440188    0.838934    0.000006
      7          1           0        0.471270   -0.009818   -0.000027
      8          1           0        2.732524    1.409417    0.000069
      9          1           0        3.218482   -1.072359   -0.000046
     10          1           0       -1.002259   -1.792246    0.886283
     11          1           0       -2.547945   -1.722019    0.000034
     12          1           0       -1.002292   -1.792259   -0.886271
 ---------------------------------------------------------------------
                    Distance matrix (angstroms):
                    1          2          3          4          5
     1  C    0.000000
     2  C    5.076857   0.000000
     3  C    4.708773   1.518442   0.000000
     4  O    1.328529   3.942860   3.876147   0.000000
     5  O    3.464447   2.436153   1.360835   2.854789   0.000000
     6  O    5.689968   2.416288   1.207007   4.990721   2.225523
     7  H    2.796271   2.413913   1.941454   1.958093   0.974935
     8  H    1.109496   5.082162   4.389318   2.015971   3.042525
     9  H    1.492329   4.737914   4.834996   1.005578   3.858450
    10  H    4.860828   1.096953   2.164321   3.674611   2.737576
    11  H    6.166234   1.090780   2.142828   5.029462   3.342539
    12  H    4.860869   1.096953   2.164320   3.674636   2.737578
                    6          7          8          9         10
     6  O    0.000000
     7  H    3.032651   0.000000
     8  H    5.204076   2.669737   0.000000
     9  H    5.972737   2.945533   2.528907   0.000000
    10  H    3.126696   2.476667   4.998462   4.372467   0.000000
    11  H    2.563219   3.470921   6.139157   5.802908   1.783119
    12  H    3.126693   2.476673   4.998518   4.372480   1.772554
                   11         12
    11  H    0.000000
    12  H    1.783119   0.000000
 Symmetry turned off by external request.
 Stoichiometry    C3H6O3
 Framework group  C1[X(C3H6O3)]
 Deg. of freedom    30
 Full point group                 C1      NOp   1
 Rotational constants (GHZ):           7.9886274           1.2913141           1.1194232
 Standard basis: 6-31+G(d) (6D, 7F)
   126 basis functions,   216 primitive gaussians,   126 cartesian basis functions
    24 alpha electrons       24 beta electrons
       nuclear repulsion energy       218.2328041092 Hartrees.
 NAtoms=   12 NActive=   12 NUniq=   12 SFac= 1.00D+00 NAtFMM=   60 NAOKFM=F Big=F
 Integral buffers will be    131072 words long.
 Raffenetti 2 integral format.
 Two-electron integral symmetry is turned off.
 One-electron integrals computed using PRISM.
 NBasis=   126 RedAO= T EigKep=  1.72D-04  NBF=   126
 NBsUse=   126 1.00D-06 EigRej= -1.00D+00 NBFU=   126
 Initial guess from the checkpoint file:  "/scratch/bell/zhao922/YARP/paper-example/KHP-network/pp_0/IRC-folder/Gau-50954.chk"
 B after Tr=    -0.001385   -0.001133   -0.000000
         Rot=    1.000000    0.000000   -0.000000    0.000220 Ang=   0.03 deg.
 ExpMin= 4.38D-02 ExpMax= 5.48D+03 ExpMxC= 8.25D+02 IAcc=3 IRadAn=         5 AccDes= 0.00D+00
 Harris functional with IExCor=  402 and IRadAn=       5 diagonalized for initial guess.
 HarFok:  IExCor=  402 AccDes= 0.00D+00 IRadAn=         5 IDoV= 1 UseB2=F ITyADJ=14
 ICtDFT=  3500011 ScaDFX=  1.000000  1.000000  1.000000  1.000000
 FoFCou: FMM=F IPFlag=           0 FMFlag=      100000 FMFlg1=           0
         NFxFlg=           0 DoJE=T BraDBF=F KetDBF=T FulRan=T
         wScrn=  0.000000 ICntrl=       500 IOpCl=  0 I1Cent=   200000004 NGrid=           0
         NMat0=    1 NMatS0=      1 NMatT0=    0 NMatD0=    1 NMtDS0=    0 NMtDT0=    0
 Symmetry not used in FoFCou.
 Keep R1 ints in memory in canonical form, NReq=47237243.
 Requested convergence on RMS density matrix=1.00D-08 within 128 cycles.
 Requested convergence on MAX density matrix=1.00D-06.
 Requested convergence on             energy=1.00D-06.
 No special actions if energy rises.
 SCF Done:  E(RB3LYP) =  -343.482539516     A.U. after   11 cycles
            NFock= 11  Conv=0.41D-08     -V/T= 2.0089
 DoSCS=F DFT=T ScalE2(SS,OS)=  1.000000  1.000000
 Range of M.O.s used for correlation:     1   126
 NBasis=   126 NAE=    24 NBE=    24 NFC=     0 NFV=     0
 NROrb=    126 NOA=    24 NOB=    24 NVA=   102 NVB=   102

 **** Warning!!: The largest alpha MO coefficient is  0.22554767D+02

 Symmetrizing basis deriv contribution to polar:
 IMax=3 JMax=2 DiffMx= 0.00D+00
 G2DrvN: will do    13 centers at a time, making    1 passes.
 Calling FoFCou, ICntrl=  3107 FMM=F I1Cent=   0 AccDes= 0.00D+00.
 End of G2Drv F.D. properties file   721 does not exist.
 End of G2Drv F.D. properties file   722 does not exist.
 End of G2Drv F.D. properties file   788 does not exist.
          IDoAtm=111111111111
          Differentiating once with respect to nuclear coordinates.
 Keep R1 ints in memory in canonical form, NReq=47193300.
          There are    39 degrees of freedom in the 1st order CPHF.  IDoFFX=6 NUNeed=     0.
     33 vectors produced by pass  0 Test12= 6.28D-15 2.56D-09 XBig12= 1.90D-01 2.81D-01.
 AX will form    33 AO Fock derivatives at one time.
     33 vectors produced by pass  1 Test12= 6.28D-15 2.56D-09 XBig12= 1.76D-02 4.50D-02.
     33 vectors produced by pass  2 Test12= 6.28D-15 2.56D-09 XBig12= 1.69D-04 2.45D-03.
     33 vectors produced by pass  3 Test12= 6.28D-15 2.56D-09 XBig12= 6.45D-07 2.26D-04.
     33 vectors produced by pass  4 Test12= 6.28D-15 2.56D-09 XBig12= 1.64D-09 9.10D-06.
     27 vectors produced by pass  5 Test12= 6.28D-15 2.56D-09 XBig12= 1.59D-12 2.76D-07.
      5 vectors produced by pass  6 Test12= 6.28D-15 2.56D-09 XBig12= 1.37D-15 8.09D-09.
 InvSVY:  IOpt=1 It=  1 EMax= 1.89D-15
 Solved reduced A of dimension   197 with    33 vectors.
 End of Minotr F.D. properties file   721 does not exist.
 End of Minotr F.D. properties file   722 does not exist.
 End of Minotr F.D. properties file   788 does not exist.
 Calling FoFJK, ICntrl=    100127 FMM=F ISym2X=0 I1Cent= 0 IOpClX= 0 NMat=1 NMatS=1 NMatT=0.
 -------------------------------------------------------------------
 Center     Atomic                   Forces (Hartrees/Bohr)
 Number     Number              X              Y              Z
 -------------------------------------------------------------------
      1        6           0.009201298    0.039913738    0.000001733
      2        6           0.000080132   -0.000058815   -0.000000029
      3        6          -0.000967344    0.000027891   -0.000000026
      4        8           0.035505392   -0.002270158   -0.000000606
      5        8           0.000058633    0.000412207    0.000000045
      6        8           0.000274634   -0.000067818    0.000000024
      7        1          -0.000917806   -0.000566399   -0.000000065
      8        1          -0.010291891   -0.002266883    0.000000081
      9        1          -0.032803852   -0.035080944   -0.000001183
     10        1          -0.000079078   -0.000005120    0.000062751
     11        1           0.000018946   -0.000032566    0.000000014
     12        1          -0.000079066   -0.000005133   -0.000062740
 -------------------------------------------------------------------
 Cartesian Forces:  Max     0.039913738 RMS     0.012206293
 IRC-IRC-IRC-IRC-IRC-IRC-IRC-IRC-IRC-IRC-IRC-IRC-IRC-IRC-IRC-IRC-IRC-IRC
 Pt  4 Step number   1 out of a maximum of 100
 Modified Bulirsch-Stoer Extrapolation Cycles:
    EPS =    0.000010000000000
      PEZero:  N= 2 I= 1 D=  8.24D-04 Err=  2.83D-05
      PEZero:  N= 3 I= 2 D=  8.24D-04 Err=  1.88D-05
      PEZero:  N= 3 I= 1 D=  1.65D-03 Err=  1.24D-07
 Maximum DWI energy   std dev =  0.000024628 at pt    34
 Maximum DWI gradient std dev =  0.005070290 at pt    35
 CORRECTOR INTEGRATION CONVERGENCE:
   Recorrection delta-x convergence threshold:    0.010000
   Delta-x Convergence Met
 Point Number:   4          Path Number:   1
   CHANGE IN THE REACTION COORDINATE =    0.15809
   NET REACTION COORDINATE UP TO THIS POINT =    0.63242
  # OF POINTS ALONG THE PATH =   4
  # OF STEPS =   1

 Calculating another point on the path.
 IRC-IRC-IRC-IRC-IRC-IRC-IRC-IRC-IRC-IRC-IRC-IRC-IRC-IRC-IRC-IRC-IRC-IRC
                          Input orientation:                          
 ---------------------------------------------------------------------
 Center     Atomic      Atomic             Coordinates (Angstroms)
 Number     Number       Type             X           Y           Z
 ---------------------------------------------------------------------
      1          6           0        3.235540    0.425145    0.000026
      2          6           0       -1.508722   -1.390613    0.000012
      3          6           0       -1.465467    0.127231   -0.000001
      4          8           0        2.351346   -0.569492   -0.000014
      5          8           0       -0.220559    0.677144   -0.000023
      6          8           0       -2.440168    0.838928    0.000006
      7          1           0        0.469888   -0.010737   -0.000027
      8          1           0        2.714980    1.405121    0.000069
      9          1           0        3.166103   -1.129947   -0.000048
     10          1           0       -1.002395   -1.792250    0.886389
     11          1           0       -2.547916   -1.722080    0.000034
     12          1           0       -1.002428   -1.792263   -0.886378
 ---------------------------------------------------------------------
                    Distance matrix (angstroms):
                    1          2          3          4          5
     1  C    0.000000
     2  C    5.079862   0.000000
     3  C    4.710438   1.518461   0.000000
     4  O    1.330827   3.946437   3.879883   0.000000
     5  O    3.465275   2.436182   1.360955   2.858111   0.000000
     6  O    5.690772   2.416288   1.206878   4.994222   2.225497
     7  H    2.799790   2.412252   1.940267   1.962675   0.974627
     8  H    1.109657   5.065155   4.371401   2.007816   3.024457
     9  H    1.556641   4.682087   4.799160   0.988908   3.838627
    10  H    4.864419   1.096970   2.164378   3.678101   2.737681
    11  H    6.169193   1.090777   2.142812   5.033014   3.342583
    12  H    4.864461   1.096970   2.164377   3.678126   2.737684
                    6          7          8          9         10
     6  O    0.000000
     7  H    3.031560   0.000000
     8  H    5.186147   2.654259   0.000000
     9  H    5.941948   2.919282   2.574895   0.000000
    10  H    3.126654   2.475306   4.982733   4.312863   0.000000
    11  H    2.563273   3.469270   6.121883   5.744618   1.783027
    12  H    3.126650   2.475312   4.982788   4.312875   1.772767
                   11         12
    11  H    0.000000
    12  H    1.783027   0.000000
 Symmetry turned off by external request.
 Stoichiometry    C3H6O3
 Framework group  C1[X(C3H6O3)]
 Deg. of freedom    30
 Full point group                 C1      NOp   1
 Rotational constants (GHZ):           7.9670589           1.2915190           1.1191545
 Standard basis: 6-31+G(d) (6D, 7F)
   126 basis functions,   216 primitive gaussians,   126 cartesian basis functions
    24 alpha electrons       24 beta electrons
       nuclear repulsion energy       218.1906981924 Hartrees.
 NAtoms=   12 NActive=   12 NUniq=   12 SFac= 1.00D+00 NAtFMM=   60 NAOKFM=F Big=F
 Integral buffers will be    131072 words long.
 Raffenetti 2 integral format.
 Two-electron integral symmetry is turned off.
 One-electron integrals computed using PRISM.
 NBasis=   126 RedAO= T EigKep=  1.72D-04  NBF=   126
 NBsUse=   126 1.00D-06 EigRej= -1.00D+00 NBFU=   126
 Initial guess from the checkpoint file:  "/scratch/bell/zhao922/YARP/paper-example/KHP-network/pp_0/IRC-folder/Gau-50954.chk"
 B after Tr=    -0.001353   -0.001211   -0.000000
         Rot=    1.000000    0.000000   -0.000000    0.000227 Ang=   0.03 deg.
 ExpMin= 4.38D-02 ExpMax= 5.48D+03 ExpMxC= 8.25D+02 IAcc=3 IRadAn=         5 AccDes= 0.00D+00
 Harris functional with IExCor=  402 and IRadAn=       5 diagonalized for initial guess.
 HarFok:  IExCor=  402 AccDes= 0.00D+00 IRadAn=         5 IDoV= 1 UseB2=F ITyADJ=14
 ICtDFT=  3500011 ScaDFX=  1.000000  1.000000  1.000000  1.000000
 FoFCou: FMM=F IPFlag=           0 FMFlag=      100000 FMFlg1=           0
         NFxFlg=           0 DoJE=T BraDBF=F KetDBF=T FulRan=T
         wScrn=  0.000000 ICntrl=       500 IOpCl=  0 I1Cent=   200000004 NGrid=           0
         NMat0=    1 NMatS0=      1 NMatT0=    0 NMatD0=    1 NMtDS0=    0 NMtDT0=    0
 Symmetry not used in FoFCou.
 Keep R1 ints in memory in canonical form, NReq=47237243.
 Requested convergence on RMS density matrix=1.00D-08 within 128 cycles.
 Requested convergence on MAX density matrix=1.00D-06.
 Requested convergence on             energy=1.00D-06.
 No special actions if energy rises.
 SCF Done:  E(RB3LYP) =  -343.490396778     A.U. after   11 cycles
            NFock= 11  Conv=0.36D-08     -V/T= 2.0089
 DoSCS=F DFT=T ScalE2(SS,OS)=  1.000000  1.000000
 Range of M.O.s used for correlation:     1   126
 NBasis=   126 NAE=    24 NBE=    24 NFC=     0 NFV=     0
 NROrb=    126 NOA=    24 NOB=    24 NVA=   102 NVB=   102

 **** Warning!!: The largest alpha MO coefficient is  0.22969150D+02

 Symmetrizing basis deriv contribution to polar:
 IMax=3 JMax=2 DiffMx= 0.00D+00
 G2DrvN: will do    13 centers at a time, making    1 passes.
 Calling FoFCou, ICntrl=  3107 FMM=F I1Cent=   0 AccDes= 0.00D+00.
 End of G2Drv F.D. properties file   721 does not exist.
 End of G2Drv F.D. properties file   722 does not exist.
 End of G2Drv F.D. properties file   788 does not exist.
          IDoAtm=111111111111
          Differentiating once with respect to nuclear coordinates.
 Keep R1 ints in memory in canonical form, NReq=47193300.
          There are    39 degrees of freedom in the 1st order CPHF.  IDoFFX=6 NUNeed=     0.
     33 vectors produced by pass  0 Test12= 6.28D-15 2.56D-09 XBig12= 1.90D-01 2.90D-01.
 AX will form    33 AO Fock derivatives at one time.
     33 vectors produced by pass  1 Test12= 6.28D-15 2.56D-09 XBig12= 1.43D-02 4.48D-02.
     33 vectors produced by pass  2 Test12= 6.28D-15 2.56D-09 XBig12= 1.68D-04 2.15D-03.
     33 vectors produced by pass  3 Test12= 6.28D-15 2.56D-09 XBig12= 6.48D-07 1.83D-04.
     33 vectors produced by pass  4 Test12= 6.28D-15 2.56D-09 XBig12= 1.15D-09 7.84D-06.
     27 vectors produced by pass  5 Test12= 6.28D-15 2.56D-09 XBig12= 1.48D-12 2.19D-07.
      6 vectors produced by pass  6 Test12= 6.28D-15 2.56D-09 XBig12= 1.29D-15 7.66D-09.
 InvSVY:  IOpt=1 It=  1 EMax= 1.11D-15
 Solved reduced A of dimension   198 with    33 vectors.
 End of Minotr F.D. properties file   721 does not exist.
 End of Minotr F.D. properties file   722 does not exist.
 End of Minotr F.D. properties file   788 does not exist.
 Calling FoFJK, ICntrl=    100127 FMM=F ISym2X=0 I1Cent= 0 IOpClX= 0 NMat=1 NMatS=1 NMatT=0.
 -------------------------------------------------------------------
 Center     Atomic                   Forces (Hartrees/Bohr)
 Number     Number              X              Y              Z
 -------------------------------------------------------------------
      1        6           0.008065743    0.034490947    0.000001489
      2        6           0.000054749   -0.000082006   -0.000000023
      3        6          -0.000805177    0.000160043   -0.000000030
      4        8           0.033662399    0.002112011   -0.000000394
      5        8          -0.000169622    0.000228372    0.000000043
      6        8           0.000099790   -0.000035733    0.000000027
      7        1          -0.000652565   -0.000570662   -0.000000062
      8        1          -0.010571643   -0.002954970    0.000000054
      9        1          -0.029534056   -0.033308246   -0.000001125
     10        1          -0.000082619   -0.000000088    0.000064020
     11        1           0.000015612   -0.000039566    0.000000011
     12        1          -0.000082611   -0.000000102   -0.000064009
 -------------------------------------------------------------------
 Cartesian Forces:  Max     0.034490947 RMS     0.011175421
 IRC-IRC-IRC-IRC-IRC-IRC-IRC-IRC-IRC-IRC-IRC-IRC-IRC-IRC-IRC-IRC-IRC-IRC
 Pt  5 Step number   1 out of a maximum of 100
 Modified Bulirsch-Stoer Extrapolation Cycles:
    EPS =    0.000010000000000
      PEZero:  N= 2 I= 1 D=  8.24D-04 Err=  2.38D-05
      PEZero:  N= 3 I= 2 D=  8.24D-04 Err=  1.59D-05
      PEZero:  N= 3 I= 1 D=  1.65D-03 Err=  6.26D-08
 Maximum DWI energy   std dev =  0.000015660 at pt    34
 Maximum DWI gradient std dev =  0.002242920 at pt    32
 CORRECTOR INTEGRATION CONVERGENCE:
   Recorrection delta-x convergence threshold:    0.010000
   Delta-x Convergence Met
 Point Number:   5          Path Number:   1
   CHANGE IN THE REACTION COORDINATE =    0.15810
   NET REACTION COORDINATE UP TO THIS POINT =    0.79052
  # OF POINTS ALONG THE PATH =   5
  # OF STEPS =   1

 Calculating another point on the path.
 IRC-IRC-IRC-IRC-IRC-IRC-IRC-IRC-IRC-IRC-IRC-IRC-IRC-IRC-IRC-IRC-IRC-IRC
                          Input orientation:                          
 ---------------------------------------------------------------------
 Center     Atomic      Atomic             Coordinates (Angstroms)
 Number     Number       Type             X           Y           Z
 ---------------------------------------------------------------------
      1          6           0        3.236693    0.429964    0.000026
      2          6           0       -1.508716   -1.390628    0.000012
      3          6           0       -1.465577    0.127266   -0.000001
      4          8           0        2.355123   -0.569021   -0.000014
      5          8           0       -0.220587    0.677152   -0.000023
      6          8           0       -2.440168    0.838926    0.000006
      7          1           0        0.468883   -0.011683   -0.000027
      8          1           0        2.695506    1.399098    0.000069
      9          1           0        3.114881   -1.188112   -0.000050
     10          1           0       -1.002548   -1.792246    0.886508
     11          1           0       -2.547890   -1.722158    0.000034
     12          1           0       -1.002581   -1.792259   -0.886496
 ---------------------------------------------------------------------
                    Distance matrix (angstroms):
                    1          2          3          4          5
     1  C    0.000000
     2  C    5.082664   0.000000
     3  C    4.712003   1.518507   0.000000
     4  O    1.332344   3.950226   3.883627   0.000000
     5  O    3.466106   2.436183   1.361020   2.861333   0.000000
     6  O    5.691573   2.416301   1.206768   4.997712   2.225469
     7  H    2.802824   2.410890   1.939444   1.966856   0.974609
     8  H    1.110002   5.045598   4.351111   1.997337   3.004131
     9  H    1.622655   4.628031   4.765587   0.980055   3.821591
    10  H    4.867776   1.096985   2.164444   3.681868   2.737759
    11  H    6.171956   1.090777   2.142842   5.036790   3.342608
    12  H    4.867817   1.096985   2.164443   3.681893   2.737762
                    6          7          8          9         10
     6  O    0.000000
     7  H    3.030861   0.000000
     8  H    5.166134   2.635935   0.000000
     9  H    5.913329   2.895737   2.620979   0.000000
    10  H    3.126612   2.474158   4.964479   4.254902   0.000000
    11  H    2.563349   3.467946   6.102085   5.687898   1.782927
    12  H    3.126608   2.474164   4.964535   4.254912   1.773003
                   11         12
    11  H    0.000000
    12  H    1.782927   0.000000
 Symmetry turned off by external request.
 Stoichiometry    C3H6O3
 Framework group  C1[X(C3H6O3)]
 Deg. of freedom    30
 Full point group                 C1      NOp   1
 Rotational constants (GHZ):           7.9468394           1.2916942           1.1188881
 Standard basis: 6-31+G(d) (6D, 7F)
   126 basis functions,   216 primitive gaussians,   126 cartesian basis functions
    24 alpha electrons       24 beta electrons
       nuclear repulsion energy       218.1350937587 Hartrees.
 NAtoms=   12 NActive=   12 NUniq=   12 SFac= 1.00D+00 NAtFMM=   60 NAOKFM=F Big=F
 Integral buffers will be    131072 words long.
 Raffenetti 2 integral format.
 Two-electron integral symmetry is turned off.
 One-electron integrals computed using PRISM.
 NBasis=   126 RedAO= T EigKep=  1.73D-04  NBF=   126
 NBsUse=   126 1.00D-06 EigRej= -1.00D+00 NBFU=   126
 Initial guess from the checkpoint file:  "/scratch/bell/zhao922/YARP/paper-example/KHP-network/pp_0/IRC-folder/Gau-50954.chk"
 B after Tr=    -0.001360   -0.001257   -0.000000
         Rot=    1.000000    0.000000   -0.000000    0.000230 Ang=   0.03 deg.
 ExpMin= 4.38D-02 ExpMax= 5.48D+03 ExpMxC= 8.25D+02 IAcc=3 IRadAn=         5 AccDes= 0.00D+00
 Harris functional with IExCor=  402 and IRadAn=       5 diagonalized for initial guess.
 HarFok:  IExCor=  402 AccDes= 0.00D+00 IRadAn=         5 IDoV= 1 UseB2=F ITyADJ=14
 ICtDFT=  3500011 ScaDFX=  1.000000  1.000000  1.000000  1.000000
 FoFCou: FMM=F IPFlag=           0 FMFlag=      100000 FMFlg1=           0
         NFxFlg=           0 DoJE=T BraDBF=F KetDBF=T FulRan=T
         wScrn=  0.000000 ICntrl=       500 IOpCl=  0 I1Cent=   200000004 NGrid=           0
         NMat0=    1 NMatS0=      1 NMatT0=    0 NMatD0=    1 NMtDS0=    0 NMtDT0=    0
 Symmetry not used in FoFCou.
 Keep R1 ints in memory in canonical form, NReq=47237243.
 Requested convergence on RMS density matrix=1.00D-08 within 128 cycles.
 Requested convergence on MAX density matrix=1.00D-06.
 Requested convergence on             energy=1.00D-06.
 No special actions if energy rises.
 SCF Done:  E(RB3LYP) =  -343.497433725     A.U. after   11 cycles
            NFock= 11  Conv=0.32D-08     -V/T= 2.0090
 DoSCS=F DFT=T ScalE2(SS,OS)=  1.000000  1.000000
 Range of M.O.s used for correlation:     1   126
 NBasis=   126 NAE=    24 NBE=    24 NFC=     0 NFV=     0
 NROrb=    126 NOA=    24 NOB=    24 NVA=   102 NVB=   102

 **** Warning!!: The largest alpha MO coefficient is  0.25041854D+02

 Symmetrizing basis deriv contribution to polar:
 IMax=3 JMax=2 DiffMx= 0.00D+00
 G2DrvN: will do    13 centers at a time, making    1 passes.
 Calling FoFCou, ICntrl=  3107 FMM=F I1Cent=   0 AccDes= 0.00D+00.
 End of G2Drv F.D. properties file   721 does not exist.
 End of G2Drv F.D. properties file   722 does not exist.
 End of G2Drv F.D. properties file   788 does not exist.
          IDoAtm=111111111111
          Differentiating once with respect to nuclear coordinates.
 Keep R1 ints in memory in canonical form, NReq=47193300.
          There are    39 degrees of freedom in the 1st order CPHF.  IDoFFX=6 NUNeed=     0.
     33 vectors produced by pass  0 Test12= 6.28D-15 2.56D-09 XBig12= 1.90D-01 2.98D-01.
 AX will form    33 AO Fock derivatives at one time.
     33 vectors produced by pass  1 Test12= 6.28D-15 2.56D-09 XBig12= 1.44D-02 4.45D-02.
     33 vectors produced by pass  2 Test12= 6.28D-15 2.56D-09 XBig12= 1.66D-04 2.44D-03.
     33 vectors produced by pass  3 Test12= 6.28D-15 2.56D-09 XBig12= 6.52D-07 1.49D-04.
     33 vectors produced by pass  4 Test12= 6.28D-15 2.56D-09 XBig12= 1.14D-09 5.88D-06.
     27 vectors produced by pass  5 Test12= 6.28D-15 2.56D-09 XBig12= 1.43D-12 2.33D-07.
      6 vectors produced by pass  6 Test12= 6.28D-15 2.56D-09 XBig12= 1.30D-15 7.16D-09.
 InvSVY:  IOpt=1 It=  1 EMax= 2.33D-15
 Solved reduced A of dimension   198 with    33 vectors.
 End of Minotr F.D. properties file   721 does not exist.
 End of Minotr F.D. properties file   722 does not exist.
 End of Minotr F.D. properties file   788 does not exist.
 Calling FoFJK, ICntrl=    100127 FMM=F ISym2X=0 I1Cent= 0 IOpClX= 0 NMat=1 NMatS=1 NMatT=0.
 -------------------------------------------------------------------
 Center     Atomic                   Forces (Hartrees/Bohr)
 Number     Number              X              Y              Z
 -------------------------------------------------------------------
      1        6           0.006717023    0.026957800    0.000001152
      2        6           0.000016321   -0.000099637   -0.000000018
      3        6          -0.000584529    0.000288633   -0.000000035
      4        8           0.030711234    0.005174837   -0.000000230
      5        8          -0.000346537   -0.000053303    0.000000036
      6        8          -0.000102310    0.000000758    0.000000030
      7        1          -0.000362351   -0.000473502   -0.000000053
      8        1          -0.010166438   -0.003547241    0.000000022
      9        1          -0.025730786   -0.028213418   -0.000000922
     10        1          -0.000081650    0.000005024    0.000062360
     11        1           0.000011669   -0.000044960    0.000000008
     12        1          -0.000081645    0.000005009   -0.000062350
 -------------------------------------------------------------------
 Cartesian Forces:  Max     0.030711234 RMS     0.009598549
 IRC-IRC-IRC-IRC-IRC-IRC-IRC-IRC-IRC-IRC-IRC-IRC-IRC-IRC-IRC-IRC-IRC-IRC
 Pt  6 Step number   1 out of a maximum of 100
 Modified Bulirsch-Stoer Extrapolation Cycles:
    EPS =    0.000010000000000
      PEZero:  N= 2 I= 1 D=  8.24D-04 Err=  2.80D-05
      PEZero:  N= 3 I= 2 D=  8.24D-04 Err=  1.86D-05
      PEZero:  N= 3 I= 1 D=  1.65D-03 Err=  3.12D-08
 Maximum DWI energy   std dev =  0.000009546 at pt    34
 Maximum DWI gradient std dev =  0.003728653 at pt    19
 CORRECTOR INTEGRATION CONVERGENCE:
   Recorrection delta-x convergence threshold:    0.010000
   Delta-x Convergence Met
 Point Number:   6          Path Number:   1
   CHANGE IN THE REACTION COORDINATE =    0.15810
   NET REACTION COORDINATE UP TO THIS POINT =    0.94862
  # OF POINTS ALONG THE PATH =   6
  # OF STEPS =   1

 Calculating another point on the path.
 IRC-IRC-IRC-IRC-IRC-IRC-IRC-IRC-IRC-IRC-IRC-IRC-IRC-IRC-IRC-IRC-IRC-IRC
                          Input orientation:                          
 ---------------------------------------------------------------------
 Center     Atomic      Atomic             Coordinates (Angstroms)
 Number     Number       Type             X           Y           Z
 ---------------------------------------------------------------------
      1          6           0        3.237824    0.434257    0.000026
      2          6           0       -1.508718   -1.390647    0.000012
      3          6           0       -1.465665    0.127330   -0.000001
      4          8           0        2.359127   -0.568100   -0.000014
      5          8           0       -0.220640    0.677119   -0.000023
      6          8           0       -2.440196    0.838929    0.000006
      7          1           0        0.468317   -0.012515   -0.000027
      8          1           0        2.673721    1.390775    0.000069
      9          1           0        3.062913   -1.244660   -0.000051
     10          1           0       -1.002726   -1.792230    0.886643
     11          1           0       -2.547868   -1.722263    0.000034
     12          1           0       -1.002759   -1.792243   -0.886631
 ---------------------------------------------------------------------
                    Distance matrix (angstroms):
                    1          2          3          4          5
     1  C    0.000000
     2  C    5.085267   0.000000
     3  C    4.713493   1.518587   0.000000
     4  O    1.332977   3.954341   3.887501   0.000000
     5  O    3.466981   2.436144   1.361013   2.864572   0.000000
     6  O    5.692423   2.416332   1.206683   5.001323   2.225446
     7  H    2.805312   2.409962   1.939032   1.970746   0.974811
     8  H    1.110468   5.022858   4.327911   1.983976   2.981046
     9  H    1.688004   4.573961   4.731847   0.976242   3.804597
    10  H    4.870894   1.097000   2.164522   3.686016   2.737794
    11  H    6.174530   1.090781   2.142931   5.040902   3.342607
    12  H    4.870935   1.097000   2.164522   3.686041   2.737797
                    6          7          8          9         10
     6  O    0.000000
     7  H    3.030578   0.000000
     8  H    5.143606   2.614006   0.000000
     9  H    5.884348   2.872300   2.664017   0.000000
    10  H    3.126570   2.473366   4.943056   4.197080   0.000000
    11  H    2.563454   3.467075   6.079145   5.631072   1.782816
    12  H    3.126566   2.473371   4.943111   4.197090   1.773273
                   11         12
    11  H    0.000000
    12  H    1.782816   0.000000
 Symmetry turned off by external request.
 Stoichiometry    C3H6O3
 Framework group  C1[X(C3H6O3)]
 Deg. of freedom    30
 Full point group                 C1      NOp   1
 Rotational constants (GHZ):           7.9288807           1.2918441           1.1186462
 Standard basis: 6-31+G(d) (6D, 7F)
   126 basis functions,   216 primitive gaussians,   126 cartesian basis functions
    24 alpha electrons       24 beta electrons
       nuclear repulsion energy       218.0825987041 Hartrees.
 NAtoms=   12 NActive=   12 NUniq=   12 SFac= 1.00D+00 NAtFMM=   60 NAOKFM=F Big=F
 Integral buffers will be    131072 words long.
 Raffenetti 2 integral format.
 Two-electron integral symmetry is turned off.
 One-electron integrals computed using PRISM.
 NBasis=   126 RedAO= T EigKep=  1.73D-04  NBF=   126
 NBsUse=   126 1.00D-06 EigRej= -1.00D+00 NBFU=   126
 Initial guess from the checkpoint file:  "/scratch/bell/zhao922/YARP/paper-example/KHP-network/pp_0/IRC-folder/Gau-50954.chk"
 B after Tr=    -0.001412   -0.001269   -0.000000
         Rot=    1.000000    0.000000   -0.000000    0.000229 Ang=   0.03 deg.
 ExpMin= 4.38D-02 ExpMax= 5.48D+03 ExpMxC= 8.25D+02 IAcc=3 IRadAn=         5 AccDes= 0.00D+00
 Harris functional with IExCor=  402 and IRadAn=       5 diagonalized for initial guess.
 HarFok:  IExCor=  402 AccDes= 0.00D+00 IRadAn=         5 IDoV= 1 UseB2=F ITyADJ=14
 ICtDFT=  3500011 ScaDFX=  1.000000  1.000000  1.000000  1.000000
 FoFCou: FMM=F IPFlag=           0 FMFlag=      100000 FMFlg1=           0
         NFxFlg=           0 DoJE=T BraDBF=F KetDBF=T FulRan=T
         wScrn=  0.000000 ICntrl=       500 IOpCl=  0 I1Cent=   200000004 NGrid=           0
         NMat0=    1 NMatS0=      1 NMatT0=    0 NMatD0=    1 NMtDS0=    0 NMtDT0=    0
 Symmetry not used in FoFCou.
 Keep R1 ints in memory in canonical form, NReq=47237243.
 Requested convergence on RMS density matrix=1.00D-08 within 128 cycles.
 Requested convergence on MAX density matrix=1.00D-06.
 Requested convergence on             energy=1.00D-06.
 No special actions if energy rises.
 SCF Done:  E(RB3LYP) =  -343.503299936     A.U. after   11 cycles
            NFock= 11  Conv=0.28D-08     -V/T= 2.0090
 DoSCS=F DFT=T ScalE2(SS,OS)=  1.000000  1.000000
 Range of M.O.s used for correlation:     1   126
 NBasis=   126 NAE=    24 NBE=    24 NFC=     0 NFV=     0
 NROrb=    126 NOA=    24 NOB=    24 NVA=   102 NVB=   102

 **** Warning!!: The largest alpha MO coefficient is  0.26865692D+02

 Symmetrizing basis deriv contribution to polar:
 IMax=3 JMax=2 DiffMx= 0.00D+00
[...]
  10                    0.50159   0.01185  -0.00002   2.99428   1.38970
  11                    0.50065   0.00939  -0.00002   2.97902   1.39525
  12                    0.49963   0.00707  -0.00002   2.96202   1.40010
  13                    0.49850   0.00487  -0.00002   2.94434   1.40431
  14                    0.49723   0.00281  -0.00003   2.92656   1.40794
  15                    0.49578   0.00092  -0.00003   2.90901   1.41101
  16                    0.49414  -0.00077  -0.00003   2.89193   1.41355
  17                    0.49231  -0.00224  -0.00003   2.87546   1.41556
  18                    0.49032  -0.00349  -0.00003   2.85968   1.41706
  19                    0.48819  -0.00454  -0.00003   2.84460   1.41804
  20                    0.48596  -0.00540  -0.00003   2.83021   1.41852
  21                    0.48369  -0.00612  -0.00003   2.81639   1.41852
  22                    0.48141  -0.00672  -0.00003   2.80301   1.41809
  23                    0.47918  -0.00727  -0.00003   2.78981   1.41725
  24                    0.47699  -0.00780  -0.00003   2.77657   1.41613
  25                    0.47491  -0.00837  -0.00003   2.76289   1.41455
  26                    0.47299  -0.00904  -0.00003   2.74831   1.41238
  27                    0.47130  -0.00984  -0.00003   2.73243   1.40933
  28                    0.46992  -0.01076  -0.00003   2.71491   1.40504
  29                    0.46892  -0.01169  -0.00003   2.69546   1.39901
  30                    0.46835  -0.01252  -0.00003   2.67370   1.39068
  31                    0.46832  -0.01303  -0.00003   2.64916   1.37934
  32                    0.46902  -0.01297  -0.00003   2.62136   1.36413
  33                    0.47085  -0.01186  -0.00003   2.59010   1.34403
  34                    0.47299  -0.01012  -0.00003   2.57793   1.33061
  35                    0.47161  -0.00857  -0.00003   2.60921   1.33504
  36                    0.46930  -0.00420  -0.00003   2.63936   1.33752
                          Z8        X9        Y9        Z9        X10
   1                    0.00004   4.20467   0.01987   0.00002  -0.92063
   2                    0.00004   4.21473   0.01999   0.00002  -0.93492
   3                    0.00004   4.22495   0.01687   0.00002  -0.94895
   4                    0.00005   4.23451   0.01018   0.00002  -0.96291
   5                    0.00005   4.24243  -0.00042   0.00001  -0.97652
   6                    0.00006   4.24793  -0.01437   0.00001  -0.98894
   7                    0.00006   4.25088  -0.03040   0.00000  -0.99814
   8                    0.00007   4.23905  -0.06643  -0.00000  -1.00039
   9                    0.00007   4.20701  -0.13494  -0.00001  -1.00054
  10                    0.00007   4.17125  -0.20141  -0.00001  -1.00062
  11                    0.00007   4.13173  -0.26476  -0.00001  -1.00071
  12                    0.00007   4.08841  -0.32509  -0.00002  -1.00080
  13                    0.00007   4.04145  -0.38261  -0.00002  -1.00089
  14                    0.00007   3.99114  -0.43757  -0.00002  -1.00099
  15                    0.00007   3.93791  -0.49027  -0.00002  -1.00108
  16                    0.00007   3.88220  -0.54107  -0.00003  -1.00118
  17                    0.00007   3.82449  -0.59037  -0.00003  -1.00128
  18                    0.00007   3.76522  -0.63854  -0.00003  -1.00137
  19                    0.00007   3.70474  -0.68587  -0.00003  -1.00147
  20                    0.00007   3.64333  -0.73258  -0.00003  -1.00156
  21                    0.00007   3.58123  -0.77884  -0.00004  -1.00165
  22                    0.00007   3.51866  -0.82484  -0.00004  -1.00174
  23                    0.00007   3.45603  -0.87109  -0.00004  -1.00183
  24                    0.00007   3.39373  -0.91787  -0.00004  -1.00193
  25                    0.00007   3.33277  -0.96644  -0.00004  -1.00203
  26                    0.00007   3.27422  -1.01788  -0.00004  -1.00214
  27                    0.00007   3.21884  -1.07270  -0.00005  -1.00226
  28                    0.00007   3.16623  -1.13005  -0.00005  -1.00240
  29                    0.00007   3.11475  -1.18796  -0.00005  -1.00255
  30                    0.00007   3.06256  -1.24427  -0.00005  -1.00273
  31                    0.00007   3.00853  -1.29706  -0.00005  -1.00294
  32                    0.00007   2.95249  -1.34474  -0.00005  -1.00322
  33                    0.00007   2.89512  -1.38589  -0.00005  -1.00362
  34                    0.00007   2.85659  -1.40671  -0.00005  -1.00534
  35                    0.00006   2.84281  -1.40617  -0.00005  -1.01015
  36                    0.00006   2.83234  -1.40654  -0.00005  -1.01272
                          Y10       Z10       X11       Y11       Z11
   1                   -1.76424   0.88474  -2.47019  -1.74169   0.00003
   2                   -1.76846   0.88479  -2.48428  -1.73769   0.00003
   3                   -1.77275   0.88485  -2.49808  -1.73382   0.00003
   4                   -1.77745   0.88490  -2.51175  -1.72986   0.00003
   5                   -1.78269   0.88495  -2.52499  -1.72579   0.00003
   6                   -1.78813   0.88500  -2.53700  -1.72202   0.00003
   7                   -1.79215   0.88501  -2.54593  -1.72027   0.00003
   8                   -1.79218   0.88501  -2.54821  -1.72123   0.00003
   9                   -1.79207   0.88504  -2.54834  -1.72151   0.00003
  10                   -1.79204   0.88508  -2.54838  -1.72161   0.00003
  11                   -1.79202   0.88512  -2.54839  -1.72167   0.00003
  12                   -1.79201   0.88517  -2.54840  -1.72171   0.00003
  13                   -1.79201   0.88522  -2.54839  -1.72174   0.00003
  14                   -1.79202   0.88528  -2.54838  -1.72176   0.00003
  15                   -1.79203   0.88534  -2.54836  -1.72178   0.00003
  16                   -1.79204   0.88540  -2.54834  -1.72179   0.00003
  17                   -1.79205   0.88547  -2.54831  -1.72180   0.00003
  18                   -1.79207   0.88554  -2.54828  -1.72182   0.00003
  19                   -1.79209   0.88562  -2.54824  -1.72183   0.00003
  20                   -1.79211   0.88569  -2.54821  -1.72184   0.00003
  21                   -1.79213   0.88577  -2.54817  -1.72185   0.00003
  22                   -1.79216   0.88585  -2.54813  -1.72187   0.00003
  23                   -1.79218   0.88593  -2.54809  -1.72189   0.00003
  24                   -1.79220   0.88601  -2.54805  -1.72191   0.00003
  25                   -1.79222   0.88609  -2.54801  -1.72194   0.00003
  26                   -1.79223   0.88619  -2.54798  -1.72197   0.00003
  27                   -1.79225   0.88628  -2.54795  -1.72202   0.00003
  28                   -1.79225   0.88639  -2.54792  -1.72208   0.00003
  29                   -1.79225   0.88651  -2.54789  -1.72216   0.00003
  30                   -1.79223   0.88664  -2.54787  -1.72226   0.00003
  31                   -1.79220   0.88680  -2.54785  -1.72240   0.00003
  32                   -1.79215   0.88700  -2.54785  -1.72260   0.00003
  33                   -1.79207   0.88724  -2.54791  -1.72288   0.00003
  34                   -1.79237   0.88742  -2.54935  -1.72313   0.00003
  35                   -1.79403   0.88746  -2.55404  -1.72327   0.00003
  36                   -1.79435   0.88749  -2.55661  -1.72451   0.00003
                          X12       Y12       Z12
   1                   -0.92066  -1.76425  -0.88473
   2                   -0.93495  -1.76847  -0.88478
   3                   -0.94898  -1.77277  -0.88483
   4                   -0.96294  -1.77747  -0.88489
   5                   -0.97655  -1.78271  -0.88494
   6                   -0.98897  -1.78814  -0.88499
   7                   -0.99817  -1.79216  -0.88500
   8                   -1.00043  -1.79219  -0.88500
   9                   -1.00057  -1.79209  -0.88503
  10                   -1.00065  -1.79205  -0.88507
  11                   -1.00074  -1.79203  -0.88511
  12                   -1.00083  -1.79202  -0.88516
  13                   -1.00092  -1.79202  -0.88521
  14                   -1.00102  -1.79203  -0.88527
  15                   -1.00112  -1.79204  -0.88533
  16                   -1.00121  -1.79205  -0.88539
  17                   -1.00131  -1.79207  -0.88546
  18                   -1.00140  -1.79209  -0.88553
  19                   -1.00150  -1.79210  -0.88560
  20                   -1.00159  -1.79213  -0.88568
  21                   -1.00168  -1.79215  -0.88576
  22                   -1.00178  -1.79217  -0.88583
  23                   -1.00187  -1.79219  -0.88591
  24                   -1.00196  -1.79221  -0.88600
  25                   -1.00206  -1.79223  -0.88608
  26                   -1.00217  -1.79225  -0.88617
  27                   -1.00229  -1.79226  -0.88627
  28                   -1.00243  -1.79226  -0.88638
  29                   -1.00258  -1.79226  -0.88650
  30                   -1.00276  -1.79224  -0.88663
  31                   -1.00297  -1.79221  -0.88679
  32                   -1.00325  -1.79216  -0.88698
  33                   -1.00366  -1.79208  -0.88723
  34                   -1.00538  -1.79238  -0.88741
  35                   -1.01019  -1.79405  -0.88745
  36                   -1.01275  -1.79437  -0.88748
 --------------------------------------------------------------------------
 
 Total number of points:                   35
 Total number of gradient calculations:    38
 Total number of Hessian calculations:     36
 IRC-IRC-IRC-IRC-IRC-IRC-IRC-IRC-IRC-IRC-IRC-IRC-IRC-IRC-IRC-IRC-IRC-IRC
                          Input orientation:                          
 ---------------------------------------------------------------------
 Center     Atomic      Atomic             Coordinates (Angstroms)
 Number     Number       Type             X           Y           Z
 ---------------------------------------------------------------------
      1          6           0        3.130794    0.278486    0.000016
      2          6           0       -1.441502   -1.378580    0.000012
      3          6           0       -1.444376    0.140101   -0.000000
      4          8           0        2.277894   -0.586992   -0.000011
      5          8           0       -0.222303    0.729893   -0.000019
      6          8           0       -2.445519    0.818113    0.000005
      7          1           0        0.511585    0.077457   -0.000020
      8          1           0        2.867496    1.351532    0.000036
      9          1           0        4.204665    0.019888    0.000022
     10          1           0       -0.920628   -1.764261    0.884739
     11          1           0       -2.470207   -1.741713    0.000030
     12          1           0       -0.920655   -1.764275   -0.884727
 ---------------------------------------------------------------------
                    Distance matrix (angstroms):
                    1          2          3          4          5
     1  C    0.000000
     2  C    4.863308   0.000000
     3  C    4.577262   1.518684   0.000000
     4  O    1.215109   3.802699   3.792619   0.000000
     5  O    3.383345   2.435592   1.356952   2.825805   0.000000
     6  O    5.602362   2.415266   1.209127   4.927976   2.224966
     7  H    2.626912   2.436102   1.956964   1.887151   0.981970
     8  H    1.104877   5.101076   4.478817   2.026205   3.151712
     9  H    1.104569   5.816779   5.650320   2.020086   4.483542
    10  H    4.622724   1.096724   2.164180   3.521263   2.737017
    11  H    5.954193   1.090917   2.143258   4.886496   3.340945
    12  H    4.622757   1.096724   2.164179   3.521283   2.737020
                    6          7          8          9         10
     6  O    0.000000
     7  H    3.048448   0.000000
     8  H    5.339725   2.678354   0.000000
     9  H    6.697918   3.693528   1.887140   0.000000
    10  H    3.126772   2.495187   4.984050   5.498594   0.000000
    11  H    2.559945   3.492916   6.169217   6.903416   1.784493
    12  H    3.126769   2.495194   4.984089   5.498629   1.769466
                   11         12
    11  H    0.000000
    12  H    1.784493   0.000000
 Symmetry turned off by external request.
 Stoichiometry    C3H6O3
 Framework group  C1[X(C3H6O3)]
 Deg. of freedom    30
 Full point group                 C1      NOp   1
 Rotational constants (GHZ):           8.2871005           1.3184179           1.1455928

 **********************************************************************

            Population analysis using the SCF Density.

 **********************************************************************

 Alpha  occ. eigenvalues --  -19.22274 -19.18923 -19.13563 -10.33172 -10.32034
 Alpha  occ. eigenvalues --  -10.20399  -1.10946  -1.09316  -1.01341  -0.75082
 Alpha  occ. eigenvalues --   -0.67908  -0.61559  -0.53865  -0.51241  -0.49916
 Alpha  occ. eigenvalues --   -0.46542  -0.45800  -0.44484  -0.41513  -0.39249
 Alpha  occ. eigenvalues --   -0.37048  -0.31908  -0.31328  -0.27111
 Alpha virt. eigenvalues --   -0.09477  -0.00475   0.00598   0.00751   0.02927
 Alpha virt. eigenvalues --    0.03740   0.04452   0.06062   0.07001   0.07737
 Alpha virt. eigenvalues --    0.08920   0.10058   0.10627   0.12618   0.12840
 Alpha virt. eigenvalues --    0.15294   0.16188   0.19613   0.21690   0.21793
 Alpha virt. eigenvalues --    0.22526   0.23588   0.24833   0.25060   0.27054
 Alpha virt. eigenvalues --    0.28341   0.29002   0.29828   0.31326   0.32054
 Alpha virt. eigenvalues --    0.34043   0.34721   0.36943   0.38251   0.40974
 Alpha virt. eigenvalues --    0.49784   0.60441   0.63617   0.64946   0.65967
 Alpha virt. eigenvalues --    0.68118   0.71788   0.76576   0.80455   0.83971
 Alpha virt. eigenvalues --    0.89679   0.91723   0.92076   0.99922   1.09034
 Alpha virt. eigenvalues --    1.10175   1.11332   1.13496   1.15398   1.15480
 Alpha virt. eigenvalues --    1.15499   1.18469   1.27038   1.27974   1.31616
 Alpha virt. eigenvalues --    1.34336   1.35763   1.38645   1.43346   1.44028
 Alpha virt. eigenvalues --    1.46410   1.47039   1.57740   1.59782   1.64327
 Alpha virt. eigenvalues --    1.72749   1.76510   1.79045   1.80765   1.83511
 Alpha virt. eigenvalues --    1.84702   1.87862   1.90216   1.97292   1.98185
 Alpha virt. eigenvalues --    2.08677   2.15147   2.20519   2.25718   2.30512
 Alpha virt. eigenvalues --    2.42813   2.45669   2.49637   2.53258   2.61450
 Alpha virt. eigenvalues --    2.64459   2.74265   2.85842   2.93357   3.08462
 Alpha virt. eigenvalues --    3.13114   4.08319   4.18344   4.20837   4.21939
 Alpha virt. eigenvalues --    4.32329   4.54720
          Condensed to atoms (all electrons):
               1          2          3          4          5          6
     1  C    4.899391   0.000281  -0.006199   0.372039   0.001275   0.000150
     2  C    0.000281   5.918736  -0.001415  -0.002024  -0.122779  -0.101638
     3  C   -0.006199  -0.001415   4.902971   0.005678   0.085259   0.482778
     4  O    0.372039  -0.002024   0.005678   8.062165  -0.015545  -0.000014
     5  O    0.001275  -0.122779   0.085259  -0.015545   8.674545  -0.103001
     6  O    0.000150  -0.101638   0.482778  -0.000014  -0.103001   8.177017
     7  H   -0.004422   0.005138  -0.001696   0.046575   0.112149   0.005828
     8  H    0.371597   0.001639  -0.002479  -0.067023   0.001800  -0.000013
     9  H    0.368248  -0.001036   0.001340  -0.065467  -0.000221   0.000001
    10  H    0.000019   0.377569  -0.045278  -0.000065   0.002968   0.001422
    11  H    0.000094   0.375569  -0.034494   0.000099   0.007397  -0.002791
    12  H    0.000019   0.377570  -0.045278  -0.000065   0.002968   0.001422
               7          8          9         10         11         12
     1  C   -0.004422   0.371597   0.368248   0.000019   0.000094   0.000019
     2  C    0.005138   0.001639  -0.001036   0.377569   0.375569   0.377570
     3  C   -0.001696  -0.002479   0.001340  -0.045278  -0.034494  -0.045278
     4  O    0.046575  -0.067023  -0.065467  -0.000065   0.000099  -0.000065
     5  O    0.112149   0.001800  -0.000221   0.002968   0.007397   0.002968
     6  O    0.005828  -0.000013   0.000001   0.001422  -0.002791   0.001422
     7  H    0.305759  -0.002136   0.000512  -0.000932   0.000311  -0.000932
     8  H   -0.002136   0.571786  -0.067310  -0.000002  -0.000000  -0.000002
     9  H    0.000512  -0.067310   0.581234   0.000000   0.000000   0.000000
    10  H   -0.000932  -0.000002   0.000000   0.483150  -0.021355  -0.029273
    11  H    0.000311  -0.000000   0.000000  -0.021355   0.453145  -0.021355
    12  H   -0.000932  -0.000002   0.000000  -0.029273  -0.021355   0.483149
 Mulliken charges:
               1
     1  C   -0.002492
     2  C   -0.827611
     3  C    0.658815
     4  O   -0.336353
     5  O   -0.646817
     6  O   -0.461162
     7  H    0.533845
     8  H    0.192143
     9  H    0.182699
    10  H    0.231776
    11  H    0.243379
    12  H    0.231777
 Sum of Mulliken charges =  -0.00000
 Mulliken charges with hydrogens summed into heavy atoms:
               1
     1  C    0.372351
     2  C   -0.120679
     3  C    0.658815
     4  O   -0.336353
     5  O   -0.112972
     6  O   -0.461162
 APT charges:
               1
     1  C   -0.278780
     2  C   -1.387559
     3  C    0.092148
     4  O   -0.743567
     5  O   -0.589355
     6  O   -0.076210
     7  H    0.534781
     8  H    0.293022
     9  H    0.774706
    10  H    0.364238
    11  H    0.652333
    12  H    0.364243
 Sum of APT charges =  -0.00000
 APT charges with hydrogens summed into heavy atoms:
               1
     1  C    0.788949
     2  C   -0.006746
     3  C    0.092148
     4  O   -0.743567
     5  O   -0.054574
     6  O   -0.076210
 Electronic spatial extent (au):  <R**2>=            950.9221
 Charge=              0.0000 electrons
 Dipole moment (field-independent basis, Debye):
    X=              5.6515    Y=             -1.9382    Z=              0.0001  Tot=              5.9746
 Quadrupole moment (field-independent basis, Debye-Ang):
   XX=            -30.7472   YY=            -38.4812   ZZ=            -35.2993
   XY=             10.4522   XZ=              0.0002   YZ=              0.0000
 Traceless Quadrupole moment (field-independent basis, Debye-Ang):
   XX=              4.0953   YY=             -3.6386   ZZ=             -0.4567
   XY=             10.4522   XZ=              0.0002   YZ=              0.0000
 Octapole moment (field-independent basis, Debye-Ang**2):
  XXX=             78.1083  YYY=              4.6444  ZZZ=             -0.0002  XYY=              1.6249
  XXY=              2.0199  XXZ=              0.0004  XZZ=             -0.1141  YZZ=              1.2962
  YYZ=              0.0000  XYZ=              0.0000
 Hexadecapole moment (field-independent basis, Debye-Ang**3):
 XXXX=           -833.0784 YYYY=           -205.6655 ZZZZ=            -39.8174 XXXY=             58.7665
 XXXZ=              0.0015 YYYX=              5.7474 YYYZ=              0.0004 ZZZX=             -0.0001
 ZZZY=              0.0003 XXYY=           -200.9651 XXZZ=           -167.6619 YYZZ=            -39.2088
 XXYZ=             -0.0001 YYXZ=              0.0001 ZZXY=             -2.3432
 N-N= 2.195305477256D+02 E-N=-1.243723598143D+03  KE= 3.404377272321D+02
  Exact polarizability:   0.000   0.000   0.000   0.000   0.000   0.000
 Approx polarizability:  82.332  -0.149  66.660   0.000   0.000  43.379

 This type of calculation cannot be archived.


 SCIENCE IS A VERY HUMAN FORM OF KNOWLEDGE.
 WE ARE ALWAYS AT THE BRINK OF THE KNOWN,
 WE ALWAYS FEEL FORWARD FOR WHAT IS HOPED.
 EVERY JUDGEMENT IN SCIENCE STANDS ON THE EDGE OF ERROR, AND IS PERSONAL.
 SCIENCE IS A TRIBUTE TO WHAT WE CAN KNOW ALTHOUGH WE ARE FALLIBLE.

                     -- J. BRONOWSKI
 Job cpu time:       0 days  2 hours 21 minutes  9.2 seconds.
 Elapsed time:       0 days  0 hours  9 minutes  4.7 seconds.
 File lengths (MBytes):  RWF=     28 Int=      0 D2E=      0 Chk=      4 Scr=      1
 Normal termination of Gaussian 16 at Wed Dec 23 22:25:57 2020.
