 Entering Gaussian System, Link 0=g16
 Initial command:
 /apps/cent7/gaussian/g16-B.01/g16-haswell/g16/l1.exe "/scratch/bell/zhao922/YARP/paper-example/KHP-network/pp_0/IRC-folder/Gau-110153.inp" -scrdir="/scratch/bell/zhao922/YARP/paper-example/KHP-network/pp_0/IRC-folder/"
 Entering Link 1 = /apps/cent7/gaussian/g16-B.01/g16-haswell/g16/l1.exe PID=    110154.
  
 Copyright (c) 1988-2017, Gaussian, Inc.  All Rights Reserved.
  
 This is part of the Gaussian(R) 16 program.  It is based on
 the Gaussian(R) 09 system (copyright 2009, Gaussian, Inc.),
 the Gaussian(R) 03 system (copyright 2003, Gaussian, Inc.),
 the Gaussian(R) 98 system (copyright 1998, Gaussian, Inc.),
 the Gaussian(R) 94 system (copyright 1995, Gaussian, Inc.),
 the Gaussian 92(TM) system (copyright 1992, Gaussian, Inc.),
 the Gaussian 90(TM) system (copyright 1990, Gaussian, Inc.),
 the Gaussian 88(TM) system (copyright 1988, Gaussian, Inc.),
 the Gaussian 86(TM) system (copyright 1986, Carnegie Mellon
 University), and the Gaussian 82(TM) system (copyright 1983,
 Carnegie Mellon University). Gaussian is a federally registered
 trademark of Gaussian, Inc.
  
 This software contains proprietary and confidential information,
 including trade secrets, belonging to Gaussian, Inc.
  
 This software is provided under written license and may be
 used, copied, transmitted, or stored only in accord with that
 written license.
  
 The following legend is applicable only to US Government
 contracts under FAR:
  
                    RESTRICTED RIGHTS LEGEND
  
 Use, reproduction and disclosure by the US Government is
 subject to restrictions as set forth in subparagraphs (a)
 and (c) of the Commercial Computer Software - Restricted
 Rights clause in FAR 52.227-19.
  
 Gaussian, Inc.
 340 Quinnipiac St., Bldg. 40, Wallingford CT 06492
  
  
 ---------------------------------------------------------------
 Warning -- This program may not be used in any manner that
 competes with the business of Gaussian, Inc. or will provide
 assistance to any competitor of Gaussian, Inc.  The licensee
 of this program is prohibited from giving any competitor of
 Gaussian, Inc. access to this program.  By using this program,
 the user acknowledges that Gaussian, Inc. is engaged in the
 business of creating and licensing software in the field of
 computational chemistry and represents and warrants to the
 licensee that it is not a competitor of Gaussian, Inc. and that
 it will not use this program in any manner prohibited above.
 ---------------------------------------------------------------
  

 Cite this work as:
 Gaussian 16, Revision B.01,
 M. J. Frisch, G. W. Trucks, H. B. Schlegel, G. E. Scuseria, 
 M. A. Robb, J. R. Cheeseman, G. Scalmani, V. Barone, 
 G. A. Petersson, H. Nakatsuji, X. Li, M. Caricato, A. V. Marenich, 
 J. Bloino, B. G. Janesko, R. Gomperts, B. Mennucci, H. P. Hratchian, 
 J. V. Ortiz, A. F. Izmaylov, J. L. Sonnenberg, D. Williams-Young, 
 F. Ding, F. Lipparini, F. Egidi, J. Goings, B. Peng, A. Petrone, 
 T. Henderson, D. Ranasinghe, V. G. Zakrzewski, J. Gao, N. Rega, 
 G. Zheng, W. Liang, M. Hada, M. Ehara, K. Toyota, R. Fukuda, 
 J. Hasegawa, M. Ishida, T. Nakajima, Y. Honda, O. Kitao, H. Nakai, 
 T. Vreven, K. Throssell, J. A. Montgomery, Jr., J. E. Peralta, 
 F. Ogliaro, M. J. Bearpark, J. J. Heyd, E. N. Brothers, K. N. Kudin, 
 V. N. Staroverov, T. A. Keith, R. Kobayashi, J. Normand, 
 K. Raghavachari, A. P. Rendell, J. C. Burant, S. S. Iyengar, 
 J. Tomasi, M. Cossi, J. M. Millam, M. Klene, C. Adamo, R. Cammi, 
 J. W. Ochterski, R. L. Martin, K. Morokuma, O. Farkas, 
 J. B. Foresman, and D. J. Fox, Gaussian, Inc., Wallingford CT, 2016.
 
 ******************************************
 Gaussian 16:  ES64L-G16RevB.01 20-Dec-2017
                23-Dec-2020 
 ******************************************
 %NProcShared=16
 Will use up to   16 processors via shared memory.
 %Mem=6GB
 ----------------------------------------------------------------------
 # B3LYP/6-31+G* IRC=(CALCALL, maxpoints=40, StepSize=15, maxcyc=100, R
 eport=Cartesians)
 ----------------------------------------------------------------------
 1/6=100,10=4,18=10,26=3,38=1,39=15,42=40,44=3,71=1,129=10,172=1/1,23;
 2/12=2,17=6,18=5,29=1,40=1/2;
 3/5=1,6=6,7=11,11=2,25=1,30=1,71=2,74=-5,140=1/1,2,3;
 4//1;
 5/5=2,38=5/2;
 8/6=4,10=90,11=11/1;
 11/6=1,8=1,9=11,15=111,16=1/1,2,10;
 10/6=1,13=1/2;
 6/7=2,8=2,9=2,10=2,18=1,28=1/1;
 7/10=1,25=1/1,2,3,16;
 1/6=100,10=4,18=10,26=3,39=15,42=40,44=3,71=1,129=10/23(2);
 2/29=1/2;
 99/5=20/99;
 2/29=1/2;
 3/5=1,6=6,7=11,11=2,25=1,30=1,71=2,74=-5,140=1/1,2,3;
 4/5=5,16=3,69=1/1;
 5/5=2,38=5/2;
 8/6=4,10=90,11=11/1;
 11/6=1,8=1,9=11,15=111,16=1/1,2,10;
 10/6=1,13=1/2;
 7/10=1,25=1/1,2,3,16;
 1/6=100,10=4,18=10,26=3,39=15,42=40,44=3,71=1,129=10/23(-8);
 2/29=1/2;
 6/7=2,8=2,9=2,10=2,18=1,19=2,28=1/1;
 99/5=20/99;
 -----------
 pp_23_0 IRC
 -----------
 Symbolic Z-matrix:
 Charge =  0 Multiplicity = 1
 C                    -1.19887   0.84117   0.04893 
 C                     0.24318   1.25178  -0.19148 
 C                     1.26965   0.25419   0.42403 
 O                    -1.50937  -0.58249  -0.17144 
 O                    -0.48356  -1.34878   0.16759 
 O                     1.74434  -0.60614  -0.43147 
 H                     0.63415  -0.40634   1.184 
 H                    -1.47989   0.99424   1.1028 
 H                    -1.91534   1.36535  -0.58794 
 H                     2.03294   0.6866    1.10809 
 H                     0.36677   2.25225   0.24808 
 H                     0.46627   1.32438  -1.26138 
 
 IRC-IRC-IRC-IRC-IRC-IRC-IRC-IRC-IRC-IRC-IRC-IRC-IRC-IRC-IRC-IRC-IRC-IRC
 ------------------------------------------------------------------------
 INPUT DATA FOR L123
 ------------------------------------------------------------------------
 GENERAL PARAMETERS:
 Follow reaction path in both directions.
 Maximum points per path      =  40
 Step size                    =   0.150 bohr
 Integration scheme           = HPC                                 
    Redo corrector integration= Yes                                 
    DWI Weight Power          =  2
    DWI will use Hessian update vectors when possible.
    Max correction cycles     = 100
 Initial Hessian              = CalcFC
 Hessian evaluation           = Analytic at all predictor steps
                              = Update at all corrector steps
 Hessian updating method      = Bofill                              
 ------------------------------------------------------------------------
 IRC-IRC-IRC-IRC-IRC-IRC-IRC-IRC-IRC-IRC-IRC-IRC-IRC-IRC-IRC-IRC-IRC-IRC
                          Input orientation:                          
 ---------------------------------------------------------------------
 Center     Atomic      Atomic             Coordinates (Angstroms)
 Number     Number       Type             X           Y           Z
 ---------------------------------------------------------------------
      1          6           0       -1.198873    0.841168    0.048934
      2          6           0        0.243179    1.251778   -0.191478
      3          6           0        1.269653    0.254189    0.424029
      4          8           0       -1.509369   -0.582489   -0.171435
      5          8           0       -0.483558   -1.348782    0.167586
      6          8           0        1.744344   -0.606144   -0.431471
      7          1           0        0.634148   -0.406337    1.183999
      8          1           0       -1.479887    0.994244    1.102797
      9          1           0       -1.915341    1.365354   -0.587944
     10          1           0        2.032944    0.686603    1.108088
     11          1           0        0.366771    2.252254    0.248084
     12          1           0        0.466271    1.324384   -1.261375
 ---------------------------------------------------------------------
                    Distance matrix (angstroms):
                    1          2          3          4          5
     1  C    0.000000
     2  C    1.518523   0.000000
     3  C    2.564929   1.558102   0.000000
     4  O    1.473692   2.536999   2.962697   0.000000
     5  O    2.306867   2.723965   2.389357   1.324548   0.000000
     6  O    3.314819   2.400618   1.302837   3.264173   2.423619
     7  H    2.490905   2.189552   1.190679   2.542223   1.780608
     8  H    1.101376   2.170352   2.927179   2.027467   2.712390
     9  H    1.092571   2.197565   3.521784   2.032827   3.160279
    10  H    3.404459   2.282883   1.112444   3.974387   3.370477
    11  H    2.117089   1.099746   2.199640   3.425152   3.700946
    12  H    2.173272   1.095318   2.152052   2.954198   3.176464
                    6          7          8          9         10
     6  O    0.000000
     7  H    1.970330   0.000000
     8  H    3.912913   2.537196   0.000000
     9  H    4.159878   3.574712   1.784922   0.000000
    10  H    2.030942   1.776770   3.526280   4.350423   0.000000
    11  H    3.244987   2.831172   2.392336   2.587193   2.442745
    12  H    2.459502   3.000572   3.079908   2.475331   2.911286
                   11         12
    11  H    0.000000
    12  H    1.774629   0.000000
 Symmetry turned off by external request.
 Stoichiometry    C3H6O3
 Framework group  C1[X(C3H6O3)]
 Deg. of freedom    30
 Full point group                 C1      NOp   1
 Rotational constants (GHZ):           5.5685164           3.3829211           2.3455772
 Standard basis: 6-31+G(d) (6D, 7F)
   126 basis functions,   216 primitive gaussians,   126 cartesian basis functions
    24 alpha electrons       24 beta electrons
       nuclear repulsion energy       250.5950342761 Hartrees.
 NAtoms=   12 NActive=   12 NUniq=   12 SFac= 1.00D+00 NAtFMM=   60 NAOKFM=F Big=F
 Integral buffers will be    131072 words long.
 Raffenetti 2 integral format.
 Two-electron integral symmetry is turned off.
 One-electron integrals computed using PRISM.
 NBasis=   126 RedAO= T EigKep=  1.39D-04  NBF=   126
 NBsUse=   126 1.00D-06 EigRej= -1.00D+00 NBFU=   126
 ExpMin= 4.38D-02 ExpMax= 5.48D+03 ExpMxC= 8.25D+02 IAcc=3 IRadAn=         5 AccDes= 0.00D+00
 Harris functional with IExCor=  402 and IRadAn=       5 diagonalized for initial guess.
 HarFok:  IExCor=  402 AccDes= 0.00D+00 IRadAn=         5 IDoV= 1 UseB2=F ITyADJ=14
 ICtDFT=  3500011 ScaDFX=  1.000000  1.000000  1.000000  1.000000
 FoFCou: FMM=F IPFlag=           0 FMFlag=      100000 FMFlg1=           0
         NFxFlg=           0 DoJE=T BraDBF=F KetDBF=T FulRan=T
         wScrn=  0.000000 ICntrl=       500 IOpCl=  0 I1Cent=   200000004 NGrid=           0
         NMat0=    1 NMatS0=      1 NMatT0=    0 NMatD0=    1 NMtDS0=    0 NMtDT0=    0
 Symmetry not used in FoFCou.
 Keep R1 ints in memory in canonical form, NReq=47237243.
 Requested convergence on RMS density matrix=1.00D-08 within 128 cycles.
 Requested convergence on MAX density matrix=1.00D-06.
 Requested convergence on             energy=1.00D-06.
 No special actions if energy rises.
 EnCoef did     3 forward-backward iterations
 EnCoef did     6 forward-backward iterations
 EnCoef did    16 forward-backward iterations
 SCF Done:  E(RB3LYP) =  -343.344207818     A.U. after   20 cycles
            NFock= 20  Conv=0.20D-08     -V/T= 2.0091
 DoSCS=F DFT=T ScalE2(SS,OS)=  1.000000  1.000000
 Range of M.O.s used for correlation:     1   126
 NBasis=   126 NAE=    24 NBE=    24 NFC=     0 NFV=     0
 NROrb=    126 NOA=    24 NOB=    24 NVA=   102 NVB=   102

 **** Warning!!: The largest alpha MO coefficient is  0.28855672D+02


 **** Warning!!: The smallest alpha delta epsilon is  0.75461110D-01

 Symmetrizing basis deriv contribution to polar:
 IMax=3 JMax=2 DiffMx= 0.00D+00
 G2DrvN: will do    13 centers at a time, making    1 passes.
 Calling FoFCou, ICntrl=  3107 FMM=F I1Cent=   0 AccDes= 0.00D+00.
 End of G2Drv F.D. properties file   721 does not exist.
 End of G2Drv F.D. properties file   722 does not exist.
 End of G2Drv F.D. properties file   788 does not exist.
          IDoAtm=111111111111
          Differentiating once with respect to nuclear coordinates.
 Keep R1 ints in memory in canonical form, NReq=47193258.
          There are    39 degrees of freedom in the 1st order CPHF.  IDoFFX=6 NUNeed=     0.
     33 vectors produced by pass  0 Test12= 6.28D-15 2.56D-09 XBig12= 3.49D-01 2.54D-01.
 AX will form    33 AO Fock derivatives at one time.
     33 vectors produced by pass  1 Test12= 6.28D-15 2.56D-09 XBig12= 7.51D-02 4.63D-02.
     33 vectors produced by pass  2 Test12= 6.28D-15 2.56D-09 XBig12= 1.01D-03 5.50D-03.
     33 vectors produced by pass  3 Test12= 6.28D-15 2.56D-09 XBig12= 7.71D-06 3.47D-04.
     33 vectors produced by pass  4 Test12= 6.28D-15 2.56D-09 XBig12= 1.90D-08 2.49D-05.
     27 vectors produced by pass  5 Test12= 6.28D-15 2.56D-09 XBig12= 2.43D-11 5.78D-07.
      9 vectors produced by pass  6 Test12= 6.28D-15 2.56D-09 XBig12= 2.37D-14 1.69D-08.
 InvSVY:  IOpt=1 It=  1 EMax= 2.00D-15
 Solved reduced A of dimension   201 with    33 vectors.
 End of Minotr F.D. properties file   721 does not exist.
 End of Minotr F.D. properties file   722 does not exist.
 End of Minotr F.D. properties file   788 does not exist.

 **********************************************************************

            Population analysis using the SCF Density.

 **********************************************************************

 Alpha  occ. eigenvalues --  -19.28750 -19.24800 -19.17629 -10.28019 -10.26866
 Alpha  occ. eigenvalues --  -10.22100  -1.20102  -1.02561  -0.89084  -0.79249
 Alpha  occ. eigenvalues --   -0.67105  -0.62511  -0.54279  -0.52667  -0.50023
 Alpha  occ. eigenvalues --   -0.46662  -0.46250  -0.44125  -0.41331  -0.40344
 Alpha  occ. eigenvalues --   -0.38133  -0.29330  -0.27116  -0.25639
 Alpha virt. eigenvalues --   -0.18093  -0.00555   0.01425   0.01975   0.02683
 Alpha virt. eigenvalues --    0.04141   0.04947   0.05823   0.07421   0.08535
 Alpha virt. eigenvalues --    0.08982   0.10676   0.11797   0.13552   0.14462
 Alpha virt. eigenvalues --    0.16881   0.17656   0.18176   0.19968   0.20791
 Alpha virt. eigenvalues --    0.23421   0.23853   0.24172   0.25288   0.26257
 Alpha virt. eigenvalues --    0.27055   0.28472   0.29302   0.30476   0.32174
 Alpha virt. eigenvalues --    0.33488   0.33651   0.34652   0.37403   0.41113
 Alpha virt. eigenvalues --    0.41772   0.59844   0.63050   0.63579   0.66535
 Alpha virt. eigenvalues --    0.70710   0.72648   0.74684   0.76489   0.86411
 Alpha virt. eigenvalues --    0.91469   0.94018   0.95411   0.98858   1.04313
 Alpha virt. eigenvalues --    1.06115   1.07555   1.10234   1.13183   1.16247
 Alpha virt. eigenvalues --    1.19042   1.20100   1.25043   1.28581   1.30509
 Alpha virt. eigenvalues --    1.34667   1.38397   1.42137   1.43800   1.50107
 Alpha virt. eigenvalues --    1.51271   1.53781   1.60797   1.65897   1.68602
 Alpha virt. eigenvalues --    1.71149   1.76795   1.81592   1.83785   1.86099
 Alpha virt. eigenvalues --    1.88378   1.89763   1.97903   2.00769   2.09414
 Alpha virt. eigenvalues --    2.12342   2.17712   2.22537   2.26704   2.29580
 Alpha virt. eigenvalues --    2.36270   2.37548   2.45933   2.48282   2.54276
 Alpha virt. eigenvalues --    2.62922   2.70896   2.75393   2.81955   2.97282
 Alpha virt. eigenvalues --    3.09748   4.02549   4.17835   4.21562   4.30548
 Alpha virt. eigenvalues --    4.42902   4.56506
          Condensed to atoms (all electrons):
               1          2          3          4          5          6
     1  C    5.648856  -0.233561   0.070870   0.082545  -0.011000  -0.033309
     2  C   -0.233561   6.597332  -0.280392  -0.019098   0.028414  -0.105050
     3  C    0.070870  -0.280392   5.456361   0.004441  -0.094736   0.325001
     4  O    0.082545  -0.019098   0.004441   7.879510   0.202550   0.035864
     5  O   -0.011000   0.028414  -0.094736   0.202550   7.993647  -0.041708
     6  O   -0.033309  -0.105050   0.325001   0.035864  -0.041708   8.209251
     7  H    0.104813  -0.218773   0.370221  -0.029468   0.024223  -0.049102
     8  H    0.419387  -0.080145   0.001414  -0.040302  -0.006861  -0.000846
     9  H    0.415140  -0.055950   0.001131  -0.046133   0.008625  -0.000769
    10  H   -0.029714  -0.071808   0.406882   0.003916   0.001732  -0.050605
    11  H   -0.040568   0.337625  -0.011046   0.006588  -0.001611   0.006461
    12  H   -0.028213   0.382471  -0.035253   0.004447  -0.005457  -0.004468
               7          8          9         10         11         12
     1  C    0.104813   0.419387   0.415140  -0.029714  -0.040568  -0.028213
     2  C   -0.218773  -0.080145  -0.055950  -0.071808   0.337625   0.382471
     3  C    0.370221   0.001414   0.001131   0.406882  -0.011046  -0.035253
     4  O   -0.029468  -0.040302  -0.046133   0.003916   0.006588   0.004447
     5  O    0.024223  -0.006861   0.008625   0.001732  -0.001611  -0.005457
     6  O   -0.049102  -0.000846  -0.000769  -0.050605   0.006461  -0.004468
     7  H    0.591783   0.007836  -0.000110  -0.035738   0.002526   0.004387
     8  H    0.007836   0.510017  -0.033178  -0.000442  -0.002988   0.004135
     9  H   -0.000110  -0.033178   0.495807  -0.000098  -0.000622  -0.004864
    10  H   -0.035738  -0.000442  -0.000098   0.561230   0.000379   0.000031
    11  H    0.002526  -0.002988  -0.000622   0.000379   0.521344  -0.026778
    12  H    0.004387   0.004135  -0.004864   0.000031  -0.026778   0.468282
 Mulliken charges:
               1
     1  C   -0.365245
     2  C   -0.281066
     3  C   -0.214895
     4  O   -0.084859
     5  O   -0.097818
     6  O   -0.290721
     7  H    0.227401
     8  H    0.221975
     9  H    0.221020
    10  H    0.214235
    11  H    0.208692
    12  H    0.241281
 Sum of Mulliken charges =  -0.00000
 Mulliken charges with hydrogens summed into heavy atoms:
               1
     1  C    0.077750
     2  C    0.168907
     3  C    0.226741
     4  O   -0.084859
     5  O   -0.097818
     6  O   -0.290721
 APT charges:
               1
     1  C   -0.882262
     2  C   -0.709952
     3  C   -0.676829
     4  O   -0.094681
     5  O   -0.086275
     6  O   -0.311705
     7  H    0.284877
     8  H    0.452236
     9  H    0.566455
    10  H    0.526058
    11  H    0.495892
    12  H    0.436185
 Sum of APT charges =  -0.00000
 APT charges with hydrogens summed into heavy atoms:
               1
     1  C    0.136429
     2  C    0.222125
     3  C    0.134106
     4  O   -0.094681
     5  O   -0.086275
     6  O   -0.311705
 Electronic spatial extent (au):  <R**2>=            537.5412
 Charge=             -0.0000 electrons
 Dipole moment (field-independent basis, Debye):
    X=             -1.4798    Y=              4.3365    Z=              1.5514  Tot=              4.8375
 Quadrupole moment (field-independent basis, Debye-Ang):
   XX=            -38.5387   YY=            -37.0828   ZZ=            -34.9874
   XY=             -0.0064   XZ=              2.5064   YZ=             -0.6377
 Traceless Quadrupole moment (field-independent basis, Debye-Ang):
   XX=             -1.6691   YY=             -0.2132   ZZ=              1.8823
   XY=             -0.0064   XZ=              2.5064   YZ=             -0.6377
 Octapole moment (field-independent basis, Debye-Ang**2):
  XXX=             -9.3875  YYY=             -0.8055  ZZZ=             -1.0481  XYY=             -1.7766
  XXY=              7.9910  XXZ=              4.0506  XZZ=             -1.7349  YZZ=             -1.1251
  YYZ=             -0.5319  XYZ=             -0.6651
 Hexadecapole moment (field-independent basis, Debye-Ang**3):
 XXXX=           -375.1730 YYYY=           -238.7656 ZZZZ=            -76.8443 XXXY=              5.7897
 XXXZ=              7.9412 YYYX=             -0.4111 YYYZ=              2.6437 ZZZX=             -0.6086
 ZZZY=             -0.7530 XXYY=           -101.1162 XXZZ=            -70.3997 YYZZ=            -51.1711
 XXYZ=             -1.9201 YYXZ=              2.0796 ZZXY=              0.5921
 N-N= 2.505950342761D+02 E-N=-1.305265277166D+03  KE= 3.402610476571D+02
  Exact polarizability:   0.000   0.000   0.000   0.000   0.000   0.000
 Approx polarizability: 296.124  44.697  91.076  -3.494   4.820  70.590
 Calling FoFJK, ICntrl=    100127 FMM=F ISym2X=0 I1Cent= 0 IOpClX= 0 NMat=1 NMatS=1 NMatT=0.
 -------------------------------------------------------------------
 Center     Atomic                   Forces (Hartrees/Bohr)
 Number     Number              X              Y              Z
 -------------------------------------------------------------------
      1        6           0.000000536    0.000001158   -0.000001204
      2        6           0.000000587   -0.000000451    0.000000085
      3        6          -0.000000424   -0.000001386    0.000000512
      4        8          -0.000000989    0.000001782   -0.000000465
      5        8          -0.000001524    0.000000329   -0.000000054
      6        8          -0.000000833   -0.000001676    0.000001754
      7        1          -0.000001680   -0.000000333    0.000000760
      8        1          -0.000000188    0.000001747   -0.000001298
      9        1           0.000001394    0.000001697   -0.000001506
     10        1          -0.000000410   -0.000001754    0.000001333
     11        1           0.000001742   -0.000000281   -0.000000201
     12        1           0.000001790   -0.000000832    0.000000284
 -------------------------------------------------------------------
 Cartesian Forces:  Max     0.000001790 RMS     0.000001141
 IRC-IRC-IRC-IRC-IRC-IRC-IRC-IRC-IRC-IRC-IRC-IRC-IRC-IRC-IRC-IRC-IRC-IRC
          ******** Start new reaction path calculation ********
 Supplied step size of   0.1500 bohr.
    Integration on MW PES will use step size of   0.1675 sqrt(amu)*bohr.
 Point Number:   0          Path Number:   1
 Calculating another point on the path.
 IRC-IRC-IRC-IRC-IRC-IRC-IRC-IRC-IRC-IRC-IRC-IRC-IRC-IRC-IRC-IRC-IRC-IRC
                          Input orientation:                          
 ---------------------------------------------------------------------
 Center     Atomic      Atomic             Coordinates (Angstroms)
 Number     Number       Type             X           Y           Z
 ---------------------------------------------------------------------
      1          6           0       -1.198055    0.909469    0.067317
      2          6           0        0.243619    1.319569   -0.172702
      3          6           0        1.272833    0.319907    0.437594
      4          8           0       -1.511372   -0.512693   -0.149416
      5          8           0       -0.480106   -1.279437    0.190136
      6          8           0        1.749325   -0.534215   -0.410090
      7          1           0        0.590334   -0.376953    1.169538
      8          1           0       -1.477296    1.063041    1.121983
      9          1           0       -1.913637    1.436242   -0.568224
     10          1           0        2.014024    0.737447    1.154767
     11          1           0        0.371516    2.317805    0.270920
     12          1           0        0.467097    1.393359   -1.242384
 ---------------------------------------------------------------------
                    Distance matrix (angstroms):
                    1          2          3          4          5
     1  C    0.000000
     2  C    1.517964   0.000000
     3  C    2.567095   1.559188   0.000000
     4  O    1.472306   2.537266   2.964726   0.000000
     5  O    2.306912   2.722179   2.385777   1.329173   0.000000
     6  O    3.316502   2.400004   1.294270   3.271171   2.426105
     7  H    2.463353   2.190892   1.219492   2.485002   1.708669
     8  H    1.101762   2.168770   2.929820   2.024982   2.711076
     9  H    1.092456   2.196315   3.522991   2.033609   3.163073
    10  H    3.395525   2.288093   1.112673   3.961333   3.349480
    11  H    2.118588   1.099833   2.198124   3.425444   3.697558
    12  H    2.173062   1.095266   2.150311   2.956680   3.176971
                    6          7          8          9         10
     6  O    0.000000
     7  H    1.965506   0.000000
     8  H    3.912742   2.520106   0.000000
     9  H    4.162330   3.546458   1.785070   0.000000
    10  H    2.033707   1.808037   3.506622   4.345518   0.000000
    11  H    3.239776   2.849055   2.390992   2.589061   2.444698
    12  H    2.460155   2.994422   3.078962   2.474717   2.927377
                   11         12
    11  H    0.000000
    12  H    1.775901   0.000000
 Symmetry turned off by external request.
 Stoichiometry    C3H6O3
 Framework group  C1[X(C3H6O3)]
 Deg. of freedom    30
 Full point group                 C1      NOp   1
 Rotational constants (GHZ):           5.5846778           3.3793608           2.3445629
 Standard basis: 6-31+G(d) (6D, 7F)
   126 basis functions,   216 primitive gaussians,   126 cartesian basis functions
    24 alpha electrons       24 beta electrons
       nuclear repulsion energy       250.7190726312 Hartrees.
 NAtoms=   12 NActive=   12 NUniq=   12 SFac= 1.00D+00 NAtFMM=   60 NAOKFM=F Big=F
 Integral buffers will be    131072 words long.
 Raffenetti 2 integral format.
 Two-electron integral symmetry is turned off.
 One-electron integrals computed using PRISM.
 NBasis=   126 RedAO= T EigKep=  1.40D-04  NBF=   126
 NBsUse=   126 1.00D-06 EigRej= -1.00D+00 NBFU=   126
 Initial guess from the checkpoint file:  "/scratch/bell/zhao922/YARP/paper-example/KHP-network/pp_0/IRC-folder/Gau-110154.chk"
 B after Tr=     0.000992    0.128102    0.037200
         Rot=    1.000000   -0.000490    0.000322    0.000170 Ang=  -0.07 deg.
 ExpMin= 4.38D-02 ExpMax= 5.48D+03 ExpMxC= 8.25D+02 IAcc=3 IRadAn=         5 AccDes= 0.00D+00
 Harris functional with IExCor=  402 and IRadAn=       5 diagonalized for initial guess.
 HarFok:  IExCor=  402 AccDes= 0.00D+00 IRadAn=         5 IDoV= 1 UseB2=F ITyADJ=14
 ICtDFT=  3500011 ScaDFX=  1.000000  1.000000  1.000000  1.000000
 FoFCou: FMM=F IPFlag=           0 FMFlag=      100000 FMFlg1=           0
         NFxFlg=           0 DoJE=T BraDBF=F KetDBF=T FulRan=T
         wScrn=  0.000000 ICntrl=       500 IOpCl=  0 I1Cent=   200000004 NGrid=           0
         NMat0=    1 NMatS0=      1 NMatT0=    0 NMatD0=    1 NMtDS0=    0 NMtDT0=    0
 Symmetry not used in FoFCou.
 Keep R1 ints in memory in canonical form, NReq=47237243.
 Requested convergence on RMS density matrix=1.00D-08 within 128 cycles.
 Requested convergence on MAX density matrix=1.00D-06.
 Requested convergence on             energy=1.00D-06.
 No special actions if energy rises.
 SCF Done:  E(RB3LYP) =  -343.344722582     A.U. after   15 cycles
            NFock= 15  Conv=0.55D-08     -V/T= 2.0091
 DoSCS=F DFT=T ScalE2(SS,OS)=  1.000000  1.000000
 Range of M.O.s used for correlation:     1   126
 NBasis=   126 NAE=    24 NBE=    24 NFC=     0 NFV=     0
 NROrb=    126 NOA=    24 NOB=    24 NVA=   102 NVB=   102

 **** Warning!!: The largest alpha MO coefficient is  0.28007788D+02


 **** Warning!!: The smallest alpha delta epsilon is  0.77292099D-01

 Symmetrizing basis deriv contribution to polar:
 IMax=3 JMax=2 DiffMx= 0.00D+00
 G2DrvN: will do    13 centers at a time, making    1 passes.
 Calling FoFCou, ICntrl=  3107 FMM=F I1Cent=   0 AccDes= 0.00D+00.
 End of G2Drv F.D. properties file   721 does not exist.
 End of G2Drv F.D. properties file   722 does not exist.
 End of G2Drv F.D. properties file   788 does not exist.
          IDoAtm=111111111111
          Differentiating once with respect to nuclear coordinates.
 Keep R1 ints in memory in canonical form, NReq=47193258.
          There are    39 degrees of freedom in the 1st order CPHF.  IDoFFX=6 NUNeed=     0.
     33 vectors produced by pass  0 Test12= 6.28D-15 2.56D-09 XBig12= 3.41D-01 2.36D-01.
 AX will form    33 AO Fock derivatives at one time.
     33 vectors produced by pass  1 Test12= 6.28D-15 2.56D-09 XBig12= 6.88D-02 4.63D-02.
     33 vectors produced by pass  2 Test12= 6.28D-15 2.56D-09 XBig12= 9.20D-04 5.18D-03.
     33 vectors produced by pass  3 Test12= 6.28D-15 2.56D-09 XBig12= 6.64D-06 3.32D-04.
     33 vectors produced by pass  4 Test12= 6.28D-15 2.56D-09 XBig12= 1.51D-08 2.11D-05.
     28 vectors produced by pass  5 Test12= 6.28D-15 2.56D-09 XBig12= 1.97D-11 5.53D-07.
      8 vectors produced by pass  6 Test12= 6.28D-15 2.56D-09 XBig12= 1.92D-14 1.58D-08.
 InvSVY:  IOpt=1 It=  1 EMax= 2.44D-15
 Solved reduced A of dimension   201 with    33 vectors.
 End of Minotr F.D. properties file   721 does not exist.
 End of Minotr F.D. properties file   722 does not exist.
 End of Minotr F.D. properties file   788 does not exist.
 Calling FoFJK, ICntrl=    100127 FMM=F ISym2X=0 I1Cent= 0 IOpClX= 0 NMat=1 NMatS=1 NMatT=0.
 -------------------------------------------------------------------
 Center     Atomic                   Forces (Hartrees/Bohr)
 Number     Number              X              Y              Z
 -------------------------------------------------------------------
      1        6          -0.000450869   -0.000110120   -0.000697277
      2        6          -0.000549027   -0.000490364   -0.000541030
      3        6           0.002679526   -0.001130042   -0.005330674
      4        8          -0.003405046    0.002048812    0.001682434
      5        8           0.003461044    0.000775301    0.003580580
      6        8           0.003396745    0.003577200    0.002137753
      7        1          -0.004058240   -0.003512439   -0.002204691
      8        1           0.000106404    0.000120559   -0.000038168
      9        1           0.000059753    0.000149698   -0.000013384
     10        1          -0.001450735   -0.001186475    0.001233415
     11        1           0.000197702   -0.000214642    0.000203824
     12        1           0.000012742   -0.000027487   -0.000012781
 -------------------------------------------------------------------
 Cartesian Forces:  Max     0.005330674 RMS     0.002042728
 IRC-IRC-IRC-IRC-IRC-IRC-IRC-IRC-IRC-IRC-IRC-IRC-IRC-IRC-IRC-IRC-IRC-IRC
 Pt  1 Step number   1 out of a maximum of 100
 Modified Bulirsch-Stoer Extrapolation Cycles:
    EPS =    0.000010000000000
      PEZero:  N= 2 I= 1 D=  4.36D-04 Err=  7.57D-04
      PEZero:  N= 3 I= 2 D=  4.36D-04 Err=  5.05D-04
      PEZero:  N= 3 I= 1 D=  8.72D-04 Err=  2.11D-07
 Maximum DWI energy   std dev =  0.000011695 at pt    43
 Maximum DWI gradient std dev =  0.053387292 at pt    41
 CORRECTOR INTEGRATION CONVERGENCE:
   Recorrection delta-x convergence threshold:    0.010000
   Delta-x Convergence Met
 Point Number:   1          Path Number:   1
   CHANGE IN THE REACTION COORDINATE =    0.16723
   NET REACTION COORDINATE UP TO THIS POINT =    0.16723
  # OF POINTS ALONG THE PATH =   1
  # OF STEPS =   1

 Calculating another point on the path.
 IRC-IRC-IRC-IRC-IRC-IRC-IRC-IRC-IRC-IRC-IRC-IRC-IRC-IRC-IRC-IRC-IRC-IRC
                          Input orientation:                          
 ---------------------------------------------------------------------
 Center     Atomic      Atomic             Coordinates (Angstroms)
 Number     Number       Type             X           Y           Z
 ---------------------------------------------------------------------
      1          6           0       -1.198544    0.909279    0.066662
      2          6           0        0.242892    1.319019   -0.173138
      3          6           0        1.275811    0.318593    0.431441
      4          8           0       -1.513976   -0.510925   -0.148387
      5          8           0       -0.477006   -1.278824    0.193273
      6          8           0        1.751482   -0.531418   -0.408102
      7          1           0        0.538643   -0.421146    1.136902
      8          1           0       -1.476033    1.064306    1.121915
      9          1           0       -1.912824    1.438335   -0.568239
     10          1           0        1.997909    0.723539    1.173504
     11          1           0        0.374199    2.315349    0.273707
     12          1           0        0.467068    1.392837   -1.242582
 ---------------------------------------------------------------------
                    Distance matrix (angstroms):
                    1          2          3          4          5
     1  C    0.000000
     2  C    1.517607   0.000000
     3  C    2.569904   1.559900   0.000000
     4  O    1.470619   2.536906   2.967695   0.000000
     5  O    2.307475   2.720533   2.383450   1.334806   0.000000
     6  O    3.317177   2.398993   1.285930   3.275835   2.426197
     7  H    2.435829   2.198146   1.260280   2.423484   1.630212
     8  H    1.102085   2.167198   2.933511   2.023971   2.711215
     9  H    1.092335   2.194870   3.524284   2.033462   3.166138
    10  H    3.387759   2.290878   1.111784   3.950270   3.330993
    11  H    2.119770   1.099812   2.196547   3.425083   3.694469
    12  H    2.173065   1.095177   2.147189   2.957382   3.176591
                    6          7          8          9         10
     6  O    0.000000
     7  H    1.967276   0.000000
     8  H    3.912051   2.503141   0.000000
     9  H    4.163258   3.517793   1.785303   0.000000
    10  H    2.033991   1.855020   3.490996   4.340327   0.000000
    11  H    3.235098   2.874118   2.389127   2.590078   2.445389
    12  H    2.459438   2.992925   3.078054   2.474004   2.937499
                   11         12
    11  H    0.000000
    12  H    1.777297   0.000000
 Symmetry turned off by external request.
 Stoichiometry    C3H6O3
 Framework group  C1[X(C3H6O3)]
 Deg. of freedom    30
 Full point group                 C1      NOp   1
 Rotational constants (GHZ):           5.5987322           3.3779439           2.3439940
 Standard basis: 6-31+G(d) (6D, 7F)
   126 basis functions,   216 primitive gaussians,   126 cartesian basis functions
    24 alpha electrons       24 beta electrons
       nuclear repulsion energy       250.8394937456 Hartrees.
 NAtoms=   12 NActive=   12 NUniq=   12 SFac= 1.00D+00 NAtFMM=   60 NAOKFM=F Big=F
 Integral buffers will be    131072 words long.
 Raffenetti 2 integral format.
 Two-electron integral symmetry is turned off.
 One-electron integrals computed using PRISM.
 NBasis=   126 RedAO= T EigKep=  1.40D-04  NBF=   126
 NBsUse=   126 1.00D-06 EigRej= -1.00D+00 NBFU=   126
 Initial guess from the checkpoint file:  "/scratch/bell/zhao922/YARP/paper-example/KHP-network/pp_0/IRC-folder/Gau-110154.chk"
 B after Tr=    -0.001254   -0.001092   -0.000341
         Rot=    1.000000   -0.000461    0.000287    0.000172 Ang=  -0.07 deg.
 ExpMin= 4.38D-02 ExpMax= 5.48D+03 ExpMxC= 8.25D+02 IAcc=3 IRadAn=         5 AccDes= 0.00D+00
 Harris functional with IExCor=  402 and IRadAn=       5 diagonalized for initial guess.
 HarFok:  IExCor=  402 AccDes= 0.00D+00 IRadAn=         5 IDoV= 1 UseB2=F ITyADJ=14
 ICtDFT=  3500011 ScaDFX=  1.000000  1.000000  1.000000  1.000000
 FoFCou: FMM=F IPFlag=           0 FMFlag=      100000 FMFlg1=           0
         NFxFlg=           0 DoJE=T BraDBF=F KetDBF=T FulRan=T
         wScrn=  0.000000 ICntrl=       500 IOpCl=  0 I1Cent=   200000004 NGrid=           0
         NMat0=    1 NMatS0=      1 NMatT0=    0 NMatD0=    1 NMtDS0=    0 NMtDT0=    0
 Symmetry not used in FoFCou.
 Keep R1 ints in memory in canonical form, NReq=47237243.
 Requested convergence on RMS density matrix=1.00D-08 within 128 cycles.
 Requested convergence on MAX density matrix=1.00D-06.
 Requested convergence on             energy=1.00D-06.
 No special actions if energy rises.
 EnCoef did     3 forward-backward iterations
 EnCoef did     2 forward-backward iterations
 SCF Done:  E(RB3LYP) =  -343.346726400     A.U. after   15 cycles
            NFock= 15  Conv=0.63D-08     -V/T= 2.0091
 DoSCS=F DFT=T ScalE2(SS,OS)=  1.000000  1.000000
 Range of M.O.s used for correlation:     1   126
 NBasis=   126 NAE=    24 NBE=    24 NFC=     0 NFV=     0
 NROrb=    126 NOA=    24 NOB=    24 NVA=   102 NVB=   102

 **** Warning!!: The largest alpha MO coefficient is  0.28019888D+02


 **** Warning!!: The smallest alpha delta epsilon is  0.80241042D-01

 Symmetrizing basis deriv contribution to polar:
 IMax=3 JMax=2 DiffMx= 0.00D+00
 G2DrvN: will do    13 centers at a time, making    1 passes.
 Calling FoFCou, ICntrl=  3107 FMM=F I1Cent=   0 AccDes= 0.00D+00.
 End of G2Drv F.D. properties file   721 does not exist.
 End of G2Drv F.D. properties file   722 does not exist.
 End of G2Drv F.D. properties file   788 does not exist.
          IDoAtm=111111111111
          Differentiating once with respect to nuclear coordinates.
 Keep R1 ints in memory in canonical form, NReq=47193258.
          There are    39 degrees of freedom in the 1st order CPHF.  IDoFFX=6 NUNeed=     0.
     33 vectors produced by pass  0 Test12= 6.28D-15 2.56D-09 XBig12= 3.18D-01 2.34D-01.
 AX will form    33 AO Fock derivatives at one time.
     33 vectors produced by pass  1 Test12= 6.28D-15 2.56D-09 XBig12= 6.24D-02 4.39D-02.
     33 vectors produced by pass  2 Test12= 6.28D-15 2.56D-09 XBig12= 8.51D-04 4.71D-03.
     33 vectors produced by pass  3 Test12= 6.28D-15 2.56D-09 XBig12= 5.53D-06 3.31D-04.
     33 vectors produced by pass  4 Test12= 6.28D-15 2.56D-09 XBig12= 1.13D-08 1.51D-05.
     28 vectors produced by pass  5 Test12= 6.28D-15 2.56D-09 XBig12= 1.46D-11 4.64D-07.
      7 vectors produced by pass  6 Test12= 6.28D-15 2.56D-09 XBig12= 1.45D-14 1.45D-08.
 InvSVY:  IOpt=1 It=  1 EMax= 2.66D-15
 Solved reduced A of dimension   200 with    33 vectors.
 End of Minotr F.D. properties file   721 does not exist.
 End of Minotr F.D. properties file   722 does not exist.
 End of Minotr F.D. properties file   788 does not exist.
 Calling FoFJK, ICntrl=    100127 FMM=F ISym2X=0 I1Cent= 0 IOpClX= 0 NMat=1 NMatS=1 NMatT=0.
 -------------------------------------------------------------------
 Center     Atomic                   Forces (Hartrees/Bohr)
 Number     Number              X              Y              Z
 -------------------------------------------------------------------
      1        6          -0.001365896   -0.000575371   -0.001035493
      2        6          -0.001464891   -0.001255305   -0.000816637
      3        6           0.007353474   -0.001969657   -0.014285831
      4        8          -0.007680939    0.005729172    0.002371795
      5        8           0.009979099    0.001717235    0.010167721
      6        8           0.006149371    0.008116920    0.006025697
      7        1          -0.010817831   -0.009275497   -0.006178131
      8        1           0.000253718    0.000343443   -0.000021695
      9        1           0.000151595    0.000373302   -0.000004518
     10        1          -0.003006658   -0.002598670    0.003295969
     11        1           0.000452948   -0.000474051    0.000499736
     12        1          -0.000003989   -0.000131521   -0.000018614
 -------------------------------------------------------------------
 Cartesian Forces:  Max     0.014285831 RMS     0.005222792
 IRC-IRC-IRC-IRC-IRC-IRC-IRC-IRC-IRC-IRC-IRC-IRC-IRC-IRC-IRC-IRC-IRC-IRC
 Pt  2 Step number   1 out of a maximum of 100
 Modified Bulirsch-Stoer Extrapolation Cycles:
    EPS =    0.000010000000000
      PEZero:  N= 2 I= 1 D=  8.72D-04 Err=  5.17D-05
      PEZero:  N= 3 I= 2 D=  8.72D-04 Err=  3.44D-05
      PEZero:  N= 3 I= 1 D=  1.74D-03 Err=  1.03D-07
 Maximum DWI energy   std dev =  0.000018557 at pt    68
 Maximum DWI gradient std dev =  0.024686226 at pt    19
 CORRECTOR INTEGRATION CONVERGENCE:
   Recorrection delta-x convergence threshold:    0.010000
   Delta-x Convergence Met
 Point Number:   2          Path Number:   1
   CHANGE IN THE REACTION COORDINATE =    0.16729
   NET REACTION COORDINATE UP TO THIS POINT =    0.33452
  # OF POINTS ALONG THE PATH =   2
  # OF STEPS =   1

 Calculating another point on the path.
 IRC-IRC-IRC-IRC-IRC-IRC-IRC-IRC-IRC-IRC-IRC-IRC-IRC-IRC-IRC-IRC-IRC-IRC
                          Input orientation:                          
 ---------------------------------------------------------------------
 Center     Atomic      Atomic             Coordinates (Angstroms)
 Number     Number       Type             X           Y           Z
 ---------------------------------------------------------------------
      1          6           0       -1.199148    0.908993    0.066389
      2          6           0        0.242297    1.318500   -0.173357
      3          6           0        1.279000    0.318023    0.425518
      4          8           0       -1.516201   -0.509086   -0.147938
      5          8           0       -0.473795   -1.278365    0.196521
      6          8           0        1.753019   -0.529059   -0.406167
      7          1           0        0.484396   -0.467509    1.106267
      8          1           0       -1.474862    1.066157    1.122026
      9          1           0       -1.912052    1.440056   -0.568232
     10          1           0        1.984448    0.711788    1.188660
     11          1           0        0.376228    2.313224    0.276068
     12          1           0        0.467070    1.391964   -1.242597
 ---------------------------------------------------------------------
                    Distance matrix (angstroms):
                    1          2          3          4          5
     1  C    0.000000
     2  C    1.517543   0.000000
     3  C    2.572827   1.560244   0.000000
     4  O    1.468811   2.536343   2.970878   0.000000
     5  O    2.308160   2.719063   2.381845   1.340542   0.000000
     6  O    3.317618   2.397907   1.278257   3.279464   2.425570
     7  H    2.410482   2.210402   1.308387   2.361599   1.550243
     8  H    1.102311   2.165717   2.937445   2.023835   2.712098
     9  H    1.092247   2.193609   3.525523   2.032855   3.169108
    10  H    3.381370   2.293094   1.111347   3.941012   3.314816
    11  H    2.120764   1.099726   2.195032   3.424399   3.691664
    12  H    2.173243   1.095077   2.143639   2.957302   3.175994
                    6          7          8          9         10
     6  O    0.000000
     7  H    1.975006   0.000000
     8  H    3.911432   2.488186   0.000000
     9  H    4.163703   3.490804   1.785471   0.000000
    10  H    2.033896   1.909892   3.478051   4.335868   0.000000
    11  H    3.231033   2.904033   2.386914   2.590654   2.446179
    12  H    2.458375   2.995847   3.077124   2.473318   2.945519
                   11         12
    11  H    0.000000
    12  H    1.778571   0.000000
 Symmetry turned off by external request.
 Stoichiometry    C3H6O3
 Framework group  C1[X(C3H6O3)]
 Deg. of freedom    30
 Full point group                 C1      NOp   1
 Rotational constants (GHZ):           5.6107951           3.3770641           2.3434361
 Standard basis: 6-31+G(d) (6D, 7F)
   126 basis functions,   216 primitive gaussians,   126 cartesian basis functions
    24 alpha electrons       24 beta electrons
       nuclear repulsion energy       250.9509122213 Hartrees.
 NAtoms=   12 NActive=   12 NUniq=   12 SFac= 1.00D+00 NAtFMM=   60 NAOKFM=F Big=F
 Integral buffers will be    131072 words long.
 Raffenetti 2 integral format.
 Two-electron integral symmetry is turned off.
 One-electron integrals computed using PRISM.
 NBasis=   126 RedAO= T EigKep=  1.40D-04  NBF=   126
 NBsUse=   126 1.00D-06 EigRej= -1.00D+00 NBFU=   126
 Initial guess from the checkpoint file:  "/scratch/bell/zhao922/YARP/paper-example/KHP-network/pp_0/IRC-folder/Gau-110154.chk"
 B after Tr=    -0.001267   -0.001091   -0.000365
         Rot=    1.000000   -0.000438    0.000267    0.000168 Ang=  -0.06 deg.
 ExpMin= 4.38D-02 ExpMax= 5.48D+03 ExpMxC= 8.25D+02 IAcc=3 IRadAn=         5 AccDes= 0.00D+00
 Harris functional with IExCor=  402 and IRadAn=       5 diagonalized for initial guess.
 HarFok:  IExCor=  402 AccDes= 0.00D+00 IRadAn=         5 IDoV= 1 UseB2=F ITyADJ=14
 ICtDFT=  3500011 ScaDFX=  1.000000  1.000000  1.000000  1.000000
 FoFCou: FMM=F IPFlag=           0 FMFlag=      100000 FMFlg1=           0
         NFxFlg=           0 DoJE=T BraDBF=F KetDBF=T FulRan=T
         wScrn=  0.000000 ICntrl=       500 IOpCl=  0 I1Cent=   200000004 NGrid=           0
         NMat0=    1 NMatS0=      1 NMatT0=    0 NMatD0=    1 NMtDS0=    0 NMtDT0=    0
 Symmetry not used in FoFCou.
 Keep R1 ints in memory in canonical form, NReq=47237243.
 Requested convergence on RMS density matrix=1.00D-08 within 128 cycles.
 Requested convergence on MAX density matrix=1.00D-06.
 Requested convergence on             energy=1.00D-06.
 No special actions if energy rises.
 EnCoef did     3 forward-backward iterations
 SCF Done:  E(RB3LYP) =  -343.350948939     A.U. after   15 cycles
            NFock= 15  Conv=0.51D-08     -V/T= 2.0091
 DoSCS=F DFT=T ScalE2(SS,OS)=  1.000000  1.000000
 Range of M.O.s used for correlation:     1   126
 NBasis=   126 NAE=    24 NBE=    24 NFC=     0 NFV=     0
 NROrb=    126 NOA=    24 NOB=    24 NVA=   102 NVB=   102

 **** Warning!!: The largest alpha MO coefficient is  0.30016582D+02


 **** Warning!!: The smallest alpha delta epsilon is  0.84610207D-01

 Symmetrizing basis deriv contribution to polar:
 IMax=3 JMax=2 DiffMx= 0.00D+00
 G2DrvN: will do    13 centers at a time, making    1 passes.
 Calling FoFCou, ICntrl=  3107 FMM=F I1Cent=   0 AccDes= 0.00D+00.
 End of G2Drv F.D. properties file   721 does not exist.
 End of G2Drv F.D. properties file   722 does not exist.
 End of G2Drv F.D. properties file   788 does not exist.
          IDoAtm=111111111111
          Differentiating once with respect to nuclear coordinates.
 Keep R1 ints in memory in canonical form, NReq=47193258.
          There are    39 degrees of freedom in the 1st order CPHF.  IDoFFX=6 NUNeed=     0.
     33 vectors produced by pass  0 Test12= 6.28D-15 2.56D-09 XBig12= 2.85D-01 2.25D-01.
 AX will form    33 AO Fock derivatives at one time.
     33 vectors produced by pass  1 Test12= 6.28D-15 2.56D-09 XBig12= 5.58D-02 4.00D-02.
     33 vectors produced by pass  2 Test12= 6.28D-15 2.56D-09 XBig12= 7.91D-04 4.05D-03.
     33 vectors produced by pass  3 Test12= 6.28D-15 2.56D-09 XBig12= 4.61D-06 2.94D-04.
     33 vectors produced by pass  4 Test12= 6.28D-15 2.56D-09 XBig12= 8.95D-09 1.61D-05.
     28 vectors produced by pass  5 Test12= 6.28D-15 2.56D-09 XBig12= 1.07D-11 4.22D-07.
      7 vectors produced by pass  6 Test12= 6.28D-15 2.56D-09 XBig12= 1.02D-14 1.44D-08.
 InvSVY:  IOpt=1 It=  1 EMax= 2.44D-15
 Solved reduced A of dimension   200 with    33 vectors.
 End of Minotr F.D. properties file   721 does not exist.
 End of Minotr F.D. properties file   722 does not exist.
 End of Minotr F.D. properties file   788 does not exist.
 Calling FoFJK, ICntrl=    100127 FMM=F ISym2X=0 I1Cent= 0 IOpClX= 0 NMat=1 NMatS=1 NMatT=0.
 -------------------------------------------------------------------
 Center     Atomic                   Forces (Hartrees/Bohr)
 Number     Number              X              Y              Z
 -------------------------------------------------------------------
      1        6          -0.003005132   -0.001521691   -0.000463225
      2        6          -0.002294226   -0.002288580   -0.000633820
      3        6           0.014419989   -0.001201922   -0.025752062
      4        8          -0.012311880    0.011151387    0.001337509
      5        8           0.019321457    0.002397349    0.019806248
      6        8           0.007981741    0.012997423    0.011229814
      7        1          -0.020734058   -0.017663922   -0.011585951
      8        1           0.000434355    0.000821692    0.000041787
      9        1           0.000275018    0.000596014    0.000002046
     10        1          -0.004738755   -0.004166999    0.005198858
     11        1           0.000661859   -0.000757132    0.000806248
     12        1          -0.000010367   -0.000363621    0.000012549
 -------------------------------------------------------------------
 Cartesian Forces:  Max     0.025752062 RMS     0.009499896
 IRC-IRC-IRC-IRC-IRC-IRC-IRC-IRC-IRC-IRC-IRC-IRC-IRC-IRC-IRC-IRC-IRC-IRC
 Pt  3 Step number   1 out of a maximum of 100
 Modified Bulirsch-Stoer Extrapolation Cycles:
    EPS =    0.000010000000000
      PEZero:  N= 2 I= 1 D=  8.72D-04 Err=  4.07D-05
      PEZero:  N= 3 I= 2 D=  8.72D-04 Err=  2.71D-05
      PEZero:  N= 3 I= 1 D=  1.74D-03 Err=  6.57D-08
 Maximum DWI energy   std dev =  0.000016085 at pt    68
 Maximum DWI gradient std dev =  0.007594315 at pt    67
 CORRECTOR INTEGRATION CONVERGENCE:
   Recorrection delta-x convergence threshold:    0.010000
   Delta-x Convergence Met
 Point Number:   3          Path Number:   1
   CHANGE IN THE REACTION COORDINATE =    0.16735
   NET REACTION COORDINATE UP TO THIS POINT =    0.50188
  # OF POINTS ALONG THE PATH =   3
  # OF STEPS =   1

 Calculating another point on the path.
 IRC-IRC-IRC-IRC-IRC-IRC-IRC-IRC-IRC-IRC-IRC-IRC-IRC-IRC-IRC-IRC-IRC-IRC
                          Input orientation:                          
 ---------------------------------------------------------------------
 Center     Atomic      Atomic             Coordinates (Angstroms)
 Number     Number       Type             X           Y           Z
 ---------------------------------------------------------------------
      1          6           0       -1.199860    0.908613    0.066420
      2          6           0        0.241839    1.317997   -0.173420
      3          6           0        1.282266    0.318000    0.419893
      4          8           0       -1.518112   -0.507199   -0.147922
      5          8           0       -0.470546   -1.278026    0.199877
      6          8           0        1.754130   -0.527041   -0.404311
      7          1           0        0.428823   -0.514762    1.075698
      8          1           0       -1.473770    1.068558    1.122242
      9          1           0       -1.911328    1.441499   -0.568215
     10          1           0        1.972886    0.701540    1.201310
     11          1           0        0.377766    2.311374    0.278046
     12          1           0        0.467044    1.390875   -1.242509
 ---------------------------------------------------------------------
                    Distance matrix (angstroms):
                    1          2          3          4          5
     1  C    0.000000
     2  C    1.517767   0.000000
     3  C    2.575795   1.560290   0.000000
     4  O    1.466884   2.535629   2.974136   0.000000
     5  O    2.308917   2.717752   2.380768   1.346303   0.000000
     6  O    3.317943   2.396768   1.271244   3.282331   2.424501
     7  H    2.386891   2.225818   1.360859   2.299535   1.469183
     8  H    1.102438   2.164318   2.941490   2.024424   2.713608
     9  H    1.092207   2.192543   3.526705   2.031918   3.172008
    10  H    3.375970   2.294870   1.111158   3.933007   3.300289
    11  H    2.121657   1.099589   2.193578   3.423471   3.689110
    12  H    2.173579   1.094980   2.139914   2.956628   3.175309
                    6          7          8          9         10
     6  O    0.000000
     7  H    1.986710   0.000000
     8  H    3.910963   2.475667   0.000000
     9  H    4.163844   3.464927   1.785550   0.000000
    10  H    2.033540   1.969594   3.467043   4.331960   0.000000
    11  H    3.227474   2.936989   2.384417   2.590905   2.447119
    12  H    2.457146   3.001167   3.076150   2.472628   2.952117
                   11         12
    11  H    0.000000
    12  H    1.779713   0.000000
 Symmetry turned off by external request.
 Stoichiometry    C3H6O3
 Framework group  C1[X(C3H6O3)]
 Deg. of freedom    30
 Full point group                 C1      NOp   1
 Rotational constants (GHZ):           5.6213381           3.3765423           2.3428541
 Standard basis: 6-31+G(d) (6D, 7F)
   126 basis functions,   216 primitive gaussians,   126 cartesian basis functions
    24 alpha electrons       24 beta electrons
       nuclear repulsion energy       251.0670350015 Hartrees.
 NAtoms=   12 NActive=   12 NUniq=   12 SFac= 1.00D+00 NAtFMM=   60 NAOKFM=F Big=F
 Integral buffers will be    131072 words long.
 Raffenetti 2 integral format.
 Two-electron integral symmetry is turned off.
 One-electron integrals computed using PRISM.
 NBasis=   126 RedAO= T EigKep=  1.41D-04  NBF=   126
 NBsUse=   126 1.00D-06 EigRej= -1.00D+00 NBFU=   126
 Initial guess from the checkpoint file:  "/scratch/bell/zhao922/YARP/paper-example/KHP-network/pp_0/IRC-folder/Gau-110154.chk"
 B after Tr=    -0.001269   -0.001074   -0.000410
         Rot=    1.000000   -0.000421    0.000250    0.000165 Ang=  -0.06 deg.
 ExpMin= 4.38D-02 ExpMax= 5.48D+03 ExpMxC= 8.25D+02 IAcc=3 IRadAn=         5 AccDes= 0.00D+00
 Harris functional with IExCor=  402 and IRadAn=       5 diagonalized for initial guess.
 HarFok:  IExCor=  402 AccDes= 0.00D+00 IRadAn=         5 IDoV= 1 UseB2=F ITyADJ=14
 ICtDFT=  3500011 ScaDFX=  1.000000  1.000000  1.000000  1.000000
 FoFCou: FMM=F IPFlag=           0 FMFlag=      100000 FMFlg1=           0
         NFxFlg=           0 DoJE=T BraDBF=F KetDBF=T FulRan=T
         wScrn=  0.000000 ICntrl=       500 IOpCl=  0 I1Cent=   200000004 NGrid=           0
         NMat0=    1 NMatS0=      1 NMatT0=    0 NMatD0=    1 NMtDS0=    0 NMtDT0=    0
 Symmetry not used in FoFCou.
 Keep R1 ints in memory in canonical form, NReq=47237243.
 Requested convergence on RMS density matrix=1.00D-08 within 128 cycles.
 Requested convergence on MAX density matrix=1.00D-06.
 Requested convergence on             energy=1.00D-06.
 No special actions if energy rises.
 SCF Done:  E(RB3LYP) =  -343.358004814     A.U. after   15 cycles
            NFock= 15  Conv=0.37D-08     -V/T= 2.0091
 DoSCS=F DFT=T ScalE2(SS,OS)=  1.000000  1.000000
 Range of M.O.s used for correlation:     1   126
 NBasis=   126 NAE=    24 NBE=    24 NFC=     0 NFV=     0
 NROrb=    126 NOA=    24 NOB=    24 NVA=   102 NVB=   102

 **** Warning!!: The largest alpha MO coefficient is  0.31251808D+02


 **** Warning!!: The smallest alpha delta epsilon is  0.90725981D-01

 Symmetrizing basis deriv contribution to polar:
 IMax=3 JMax=2 DiffMx= 0.00D+00
 G2DrvN: will do    13 centers at a time, making    1 passes.
 Calling FoFCou, ICntrl=  3107 FMM=F I1Cent=   0 AccDes= 0.00D+00.
 End of G2Drv F.D. properties file   721 does not exist.
 End of G2Drv F.D. properties file   722 does not exist.
 End of G2Drv F.D. properties file   788 does not exist.
          IDoAtm=111111111111
          Differentiating once with respect to nuclear coordinates.
 Keep R1 ints in memory in canonical form, NReq=47193258.
          There are    39 degrees of freedom in the 1st order CPHF.  IDoFFX=6 NUNeed=     0.
     33 vectors produced by pass  0 Test12= 6.28D-15 2.56D-09 XBig12= 2.47D-01 2.06D-01.
 AX will form    33 AO Fock derivatives at one time.
     33 vectors produced by pass  1 Test12= 6.28D-15 2.56D-09 XBig12= 4.87D-02 4.03D-02.
     33 vectors produced by pass  2 Test12= 6.28D-15 2.56D-09 XBig12= 7.41D-04 3.50D-03.
     33 vectors produced by pass  3 Test12= 6.28D-15 2.56D-09 XBig12= 3.92D-06 3.03D-04.
     33 vectors produced by pass  4 Test12= 6.28D-15 2.56D-09 XBig12= 7.33D-09 1.60D-05.
     29 vectors produced by pass  5 Test12= 6.28D-15 2.56D-09 XBig12= 8.23D-12 3.81D-07.
      7 vectors produced by pass  6 Test12= 6.28D-15 2.56D-09 XBig12= 7.49D-15 1.21D-08.
 InvSVY:  IOpt=1 It=  1 EMax= 1.78D-15
 Solved reduced A of dimension   201 with    33 vectors.
 End of Minotr F.D. properties file   721 does not exist.
 End of Minotr F.D. properties file   722 does not exist.
 End of Minotr F.D. properties file   788 does not exist.
 Calling FoFJK, ICntrl=    100127 FMM=F ISym2X=0 I1Cent= 0 IOpClX= 0 NMat=1 NMatS=1 NMatT=0.
 -------------------------------------------------------------------
 Center     Atomic                   Forces (Hartrees/Bohr)
 Number     Number              X              Y              Z
 -------------------------------------------------------------------
      1        6          -0.005285621   -0.002950482    0.001072327
      2        6          -0.002698200   -0.003483126   -0.000049319
      3        6           0.022766076    0.001384573   -0.037950506
      4        8          -0.016514452    0.017619213   -0.001306168
      5        8           0.030027407    0.002705205    0.031544801
      6        8           0.008937303    0.017413524    0.016780403
      7        1          -0.032633706   -0.027658482   -0.018168311
      8        1           0.000617030    0.001542715    0.000128811
      9        1           0.000399471    0.000781978    0.000009465
     10        1          -0.006363447   -0.005676745    0.006827801
     11        1           0.000787021   -0.001015458    0.001046754
     12        1          -0.000038882   -0.000662915    0.000063943
 -------------------------------------------------------------------
 Cartesian Forces:  Max     0.037950506 RMS     0.014392679
 IRC-IRC-IRC-IRC-IRC-IRC-IRC-IRC-IRC-IRC-IRC-IRC-IRC-IRC-IRC-IRC-IRC-IRC
 Pt  4 Step number   1 out of a maximum of 100
 Modified Bulirsch-Stoer Extrapolation Cycles:
    EPS =    0.000010000000000
      PEZero:  N= 2 I= 1 D=  8.72D-04 Err=  2.98D-05
      PEZero:  N= 3 I= 2 D=  8.72D-04 Err=  1.99D-05
      PEZero:  N= 3 I= 1 D=  1.74D-03 Err=  4.03D-08
 Maximum DWI energy   std dev =  0.000007898 at pt    70
 Maximum DWI gradient std dev =  0.003058513 at pt    68
 CORRECTOR INTEGRATION CONVERGENCE:
   Recorrection delta-x convergence threshold:    0.010000
   Delta-x Convergence Met
 Point Number:   4          Path Number:   1
   CHANGE IN THE REACTION COORDINATE =    0.16739
   NET REACTION COORDINATE UP TO THIS POINT =    0.66926
  # OF POINTS ALONG THE PATH =   4
  # OF STEPS =   1

 Calculating another point on the path.
 IRC-IRC-IRC-IRC-IRC-IRC-IRC-IRC-IRC-IRC-IRC-IRC-IRC-IRC-IRC-IRC-IRC-IRC
                          Input orientation:                          
 ---------------------------------------------------------------------
 Center     Atomic      Atomic             Coordinates (Angstroms)
 Number     Number       Type             X           Y           Z
 ---------------------------------------------------------------------
      1          6           0       -1.200659    0.908152    0.066678
      2          6           0        0.241508    1.317499   -0.173376
      3          6           0        1.285557    0.318392    0.414563
      4          8           0       -1.519781   -0.505284   -0.148204
      5          8           0       -0.467315   -1.277780    0.203320
      6          8           0        1.754958   -0.525281   -0.402535
      7          1           0        0.372597   -0.562307    1.044269
      8          1           0       -1.472761    1.071400    1.122509
      9          1           0       -1.910662    1.442733   -0.568192
     10          1           0        1.962672    0.692358    1.212198
     11          1           0        0.378949    2.309752    0.279686
     12          1           0        0.466953    1.389682   -1.242373
 ---------------------------------------------------------------------
                    Distance matrix (angstroms):
                    1          2          3          4          5
     1  C    0.000000
     2  C    1.518235   0.000000
     3  C    2.578781   1.560104   0.000000
     4  O    1.464860   2.534820   2.977427   0.000000
     5  O    2.309711   2.716580   2.380115   1.352037   0.000000
     6  O    3.318217   2.395596   1.264821   3.284661   2.423182
     7  H    2.364968   2.243550   1.416212   2.237485   1.387281
     8  H    1.102484   2.163008   2.945594   2.025551   2.715599
     9  H    1.092218   2.191665   3.527855   2.030751   3.174850
    10  H    3.371268   2.296306   1.111106   3.925878   3.286961
    11  H    2.122502   1.099418   2.192177   3.422381   3.686784
    12  H    2.174032   1.094892   2.136167   2.955540   3.174624
                    6          7          8          9         10
     6  O    0.000000
     7  H    2.001383   0.000000
     8  H    3.910667   2.465860   0.000000
     9  H    4.163807   3.439984   1.785530   0.000000
    10  H    2.033015   2.032418   3.457443   4.328459   0.000000
    11  H    3.224319   2.972095   2.381742   2.590933   2.448207
    12  H    2.455884   3.007972   3.075136   2.471919   2.957761
                   11         12
    11  H    0.000000
    12  H    1.780712   0.000000
 Symmetry turned off by external request.
 Stoichiometry    C3H6O3
 Framework group  C1[X(C3H6O3)]
 Deg. of freedom    30
 Full point group                 C1      NOp   1
 Rotational constants (GHZ):           5.6306798           3.3762043           2.3422014
 Standard basis: 6-31+G(d) (6D, 7F)
   126 basis functions,   216 primitive gaussians,   126 cartesian basis functions
    24 alpha electrons       24 beta electrons
       nuclear repulsion energy       251.1963567691 Hartrees.
 NAtoms=   12 NActive=   12 NUniq=   12 SFac= 1.00D+00 NAtFMM=   60 NAOKFM=F Big=F
 Integral buffers will be    131072 words long.
 Raffenetti 2 integral format.
 Two-electron integral symmetry is turned off.
 One-electron integrals computed using PRISM.
 NBasis=   126 RedAO= T EigKep=  1.41D-04  NBF=   126
 NBsUse=   126 1.00D-06 EigRej= -1.00D+00 NBFU=   126
 Initial guess from the checkpoint file:  "/scratch/bell/zhao922/YARP/paper-example/KHP-network/pp_0/IRC-folder/Gau-110154.chk"
 B after Tr=    -0.001266   -0.001054   -0.000461
         Rot=    1.000000   -0.000408    0.000236    0.000162 Ang=  -0.06 deg.
 ExpMin= 4.38D-02 ExpMax= 5.48D+03 ExpMxC= 8.25D+02 IAcc=3 IRadAn=         5 AccDes= 0.00D+00
 Harris functional with IExCor=  402 and IRadAn=       5 diagonalized for initial guess.
 HarFok:  IExCor=  402 AccDes= 0.00D+00 IRadAn=         5 IDoV= 1 UseB2=F ITyADJ=14
 ICtDFT=  3500011 ScaDFX=  1.000000  1.000000  1.000000  1.000000
 FoFCou: FMM=F IPFlag=           0 FMFlag=      100000 FMFlg1=           0
         NFxFlg=           0 DoJE=T BraDBF=F KetDBF=T FulRan=T
         wScrn=  0.000000 ICntrl=       500 IOpCl=  0 I1Cent=   200000004 NGrid=           0
         NMat0=    1 NMatS0=      1 NMatT0=    0 NMatD0=    1 NMtDS0=    0 NMtDT0=    0
 Symmetry not used in FoFCou.
 Keep R1 ints in memory in canonical form, NReq=47237243.
 Requested convergence on RMS density matrix=1.00D-08 within 128 cycles.
 Requested convergence on MAX density matrix=1.00D-06.
 Requested convergence on             energy=1.00D-06.
 No special actions if energy rises.
 SCF Done:  E(RB3LYP) =  -343.368136888     A.U. after   14 cycles
            NFock= 14  Conv=0.84D-08     -V/T= 2.0091
 DoSCS=F DFT=T ScalE2(SS,OS)=  1.000000  1.000000
 Range of M.O.s used for correlation:     1   126
 NBasis=   126 NAE=    24 NBE=    24 NFC=     0 NFV=     0
 NROrb=    126 NOA=    24 NOB=    24 NVA=   102 NVB=   102

 **** Warning!!: The largest alpha MO coefficient is  0.31593881D+02


 **** Warning!!: The smallest alpha delta epsilon is  0.98813716D-01

 Symmetrizing basis deriv contribution to polar:
 IMax=3 JMax=2 DiffMx= 0.00D+00
 G2DrvN: will do    13 centers at a time, making    1 passes.
 Calling FoFCou, ICntrl=  3107 FMM=F I1Cent=   0 AccDes= 0.00D+00.
 End of G2Drv F.D. properties file   721 does not exist.
 End of G2Drv F.D. properties file   722 does not exist.
 End of G2Drv F.D. properties file   788 does not exist.
          IDoAtm=111111111111
          Differentiating once with respect to nuclear coordinates.
 Keep R1 ints in memory in canonical form, NReq=47193258.
          There are    39 degrees of freedom in the 1st order CPHF.  IDoFFX=6 NUNeed=     0.
     33 vectors produced by pass  0 Test12= 6.28D-15 2.56D-09 XBig12= 2.13D-01 1.82D-01.
 AX will form    33 AO Fock derivatives at one time.
     33 vectors produced by pass  1 Test12= 6.28D-15 2.56D-09 XBig12= 4.02D-02 3.84D-02.
     33 vectors produced by pass  2 Test12= 6.28D-15 2.56D-09 XBig12= 7.05D-04 3.23D-03.
     33 vectors produced by pass  3 Test12= 6.28D-15 2.56D-09 XBig12= 3.31D-06 3.02D-04.
     33 vectors produced by pass  4 Test12= 6.28D-15 2.56D-09 XBig12= 5.46D-09 1.54D-05.
     30 vectors produced by pass  5 Test12= 6.28D-15 2.56D-09 XBig12= 6.16D-12 3.65D-07.
      5 vectors produced by pass  6 Test12= 6.28D-15 2.56D-09 XBig12= 5.72D-15 9.37D-09.
 InvSVY:  IOpt=1 It=  1 EMax= 1.11D-15
 Solved reduced A of dimension   200 with    33 vectors.
 End of Minotr F.D. properties file   721 does not exist.
 End of Minotr F.D. properties file   722 does not exist.
 End of Minotr F.D. properties file   788 does not exist.
 Calling FoFJK, ICntrl=    100127 FMM=F ISym2X=0 I1Cent= 0 IOpClX= 0 NMat=1 NMatS=1 NMatT=0.
 -------------------------------------------------------------------
 Center     Atomic                   Forces (Hartrees/Bohr)
 Number     Number              X              Y              Z
 -------------------------------------------------------------------
      1        6          -0.007790910   -0.004655959    0.003205501
      2        6          -0.002578905   -0.004698564    0.000779915
      3        6           0.031023600    0.005299903   -0.048878102
      4        8          -0.019799998    0.024115612   -0.004776860
      5        8           0.040260146    0.002494707    0.043560943
      6        8           0.009158884    0.020796196    0.021838800
      7        1          -0.044539343   -0.037506633   -0.025340495
      8        1           0.000761079    0.002374567    0.000213118
      9        1           0.000501578    0.000915235    0.000020235
     10        1          -0.007720854   -0.006973956    0.008083966
     11        1           0.000835401   -0.001208718    0.001178877
     12        1          -0.000110678   -0.000952391    0.000114102
 -------------------------------------------------------------------
 Cartesian Forces:  Max     0.048878102 RMS     0.019173232
 IRC-IRC-IRC-IRC-IRC-IRC-IRC-IRC-IRC-IRC-IRC-IRC-IRC-IRC-IRC-IRC-IRC-IRC
 Pt  5 Step number   1 out of a maximum of 100
 Modified Bulirsch-Stoer Extrapolation Cycles:
    EPS =    0.000010000000000
      PEZero:  N= 2 I= 1 D=  8.72D-04 Err=  2.06D-05
      PEZero:  N= 3 I= 2 D=  8.72D-04 Err=  1.37D-05
      PEZero:  N= 3 I= 1 D=  1.74D-03 Err=  2.63D-08
 Maximum DWI energy   std dev =  0.000009986 at pt    26
 Maximum DWI gradient std dev =  0.001606093 at pt    46
 CORRECTOR INTEGRATION CONVERGENCE:
   Recorrection delta-x convergence threshold:    0.010000
   Delta-x Convergence Met
 Point Number:   5          Path Number:   1
   CHANGE IN THE REACTION COORDINATE =    0.16741
   NET REACTION COORDINATE UP TO THIS POINT =    0.83667
  # OF POINTS ALONG THE PATH =   5
  # OF STEPS =   1

 Calculating another point on the path.
 IRC-IRC-IRC-IRC-IRC-IRC-IRC-IRC-IRC-IRC-IRC-IRC-IRC-IRC-IRC-IRC-IRC-IRC
                          Input orientation:                          
 ---------------------------------------------------------------------
 Center     Atomic      Atomic             Coordinates (Angstroms)
 Number     Number       Type             X           Y           Z
 ---------------------------------------------------------------------
      1          6           0       -1.201514    0.907627    0.067092
      2          6           0        0.241285    1.316999   -0.173259
      3          6           0        1.288861    0.319108    0.409482
      4          8           0       -1.521281   -0.503352   -0.148674
      5          8           0       -0.464126   -1.277626    0.206821
      6          8           0        1.755602   -0.523711   -0.400823
      7          1           0        0.316084   -0.609735    1.011631
      8          1           0       -1.471844    1.074554    1.122797
      9          1           0       -1.910046    1.443817   -0.568160
     10          1           0        1.953339    0.683877    1.221891
     11          1           0        0.379894    2.308310    0.281048
     12          1           0        0.466771    1.388461   -1.242218
 ---------------------------------------------------------------------
                    Distance matrix (angstroms):
                    1          2          3          4          5
     1  C    0.000000
     2  C    1.518889   0.000000
     3  C    2.581774   1.559741   0.000000
     4  O    1.462760   2.533953   2.980751   0.000000
     5  O    2.310540   2.715538   2.379831   1.357738   0.000000
     6  O    3.318464   2.394401   1.258882   3.286632   2.421737
     7  H    2.344706   2.263154   1.473645   2.175668   1.304808
     8  H    1.102478   2.161794   2.949748   2.027035   2.717951
     9  H    1.092274   2.190948   3.528989   2.029427   3.177661
    10  H    3.367005   2.297481   1.111123   3.919304   3.274446
    11  H    2.123333   1.099229   2.190809   3.421194   3.684673
    12  H    2.174550   1.094817   2.132478   2.954174   3.174004
                    6          7          8          9         10
     6  O    0.000000
     7  H    2.018573   0.000000
     8  H    3.910534   2.458836   0.000000
     9  H    4.163669   3.415914   1.785417   0.000000
    10  H    2.032380   2.097200   3.448815   4.325221   0.000000
    11  H    3.221469   3.008790   2.378998   2.590816   2.449428
    12  H    2.454675   3.015846   3.074096   2.471169   2.962795
                   11         12
    11  H    0.000000
    12  H    1.781575   0.000000
 Symmetry turned off by external request.
 Stoichiometry    C3H6O3
 Framework group  C1[X(C3H6O3)]
 Deg. of freedom    30
 Full point group                 C1      NOp   1
 Rotational constants (GHZ):           5.6390197           3.3759147           2.3414379
 Standard basis: 6-31+G(d) (6D, 7F)
   126 basis functions,   216 primitive gaussians,   126 cartesian basis functions
    24 alpha electrons       24 beta electrons
       nuclear repulsion energy       251.3451498412 Hartrees.
 NAtoms=   12 NActive=   12 NUniq=   12 SFac= 1.00D+00 NAtFMM=   60 NAOKFM=F Big=F
 Integral buffers will be    131072 words long.
 Raffenetti 2 integral format.
 Two-electron integral symmetry is turned off.
 One-electron integrals computed using PRISM.
 NBasis=   126 RedAO= T EigKep=  1.41D-04  NBF=   126
 NBsUse=   126 1.00D-06 EigRej= -1.00D+00 NBFU=   126
 Initial guess from the checkpoint file:  "/scratch/bell/zhao922/YARP/paper-example/KHP-network/pp_0/IRC-folder/Gau-110154.chk"
 B after Tr=    -0.001264   -0.001033   -0.000509
         Rot=    1.000000   -0.000399    0.000225    0.000159 Ang=  -0.06 deg.
 ExpMin= 4.38D-02 ExpMax= 5.48D+03 ExpMxC= 8.25D+02 IAcc=3 IRadAn=         5 AccDes= 0.00D+00
 Harris functional with IExCor=  402 and IRadAn=       5 diagonalized for initial guess.
 HarFok:  IExCor=  402 AccDes= 0.00D+00 IRadAn=         5 IDoV= 1 UseB2=F ITyADJ=14
 ICtDFT=  3500011 ScaDFX=  1.000000  1.000000  1.000000  1.000000
 FoFCou: FMM=F IPFlag=           0 FMFlag=      100000 FMFlg1=           0
         NFxFlg=           0 DoJE=T BraDBF=F KetDBF=T FulRan=T
         wScrn=  0.000000 ICntrl=       500 IOpCl=  0 I1Cent=   200000004 NGrid=           0
         NMat0=    1 NMatS0=      1 NMatT0=    0 NMatD0=    1 NMtDS0=    0 NMtDT0=    0
 Symmetry not used in FoFCou.
 Keep R1 ints in memory in canonical form, NReq=47237243.
 Requested convergence on RMS density matrix=1.00D-08 within 128 cycles.
 Requested convergence on MAX density matrix=1.00D-06.
 Requested convergence on             energy=1.00D-06.
 No special actions if energy rises.
 SCF Done:  E(RB3LYP) =  -343.381078536     A.U. after   14 cycles
            NFock= 14  Conv=0.52D-08     -V/T= 2.0091
 DoSCS=F DFT=T ScalE2(SS,OS)=  1.000000  1.000000
 Range of M.O.s used for correlation:     1   126
 NBasis=   126 NAE=    24 NBE=    24 NFC=     0 NFV=     0
 NROrb=    126 NOA=    24 NOB=    24 NVA=   102 NVB=   102

 **** Warning!!: The largest alpha MO coefficient is  0.31251621D+02

 Symmetrizing basis deriv contribution to polar:
 IMax=3 JMax=2 DiffMx= 0.00D+00
 G2DrvN: will do    13 centers at a time, making    1 passes.
 Calling FoFCou, ICntrl=  3107 FMM=F I1Cent=   0 AccDes= 0.00D+00.
 End of G2Drv F.D. properties file   721 does not exist.
 End of G2Drv F.D. properties file   722 does not exist.
 End of G2Drv F.D. properties file   788 does not exist.
          IDoAtm=111111111111
          Differentiating once with respect to nuclear coordinates.
 Keep R1 ints in memory in canonical form, NReq=47193258.
          There are    39 degrees of freedom in the 1st order CPHF.  IDoFFX=6 NUNeed=     0.
     33 vectors produced by pass  0 Test12= 6.28D-15 2.56D-09 XBig12= 1.86D-01 1.57D-01.
 AX will form    33 AO Fock derivatives at one time.
     33 vectors produced by pass  1 Test12= 6.28D-15 2.56D-09 XBig12= 3.15D-02 3.59D-02.
     33 vectors produced by pass  2 Test12= 6.28D-15 2.56D-09 XBig12= 6.78D-04 3.25D-03.
     33 vectors produced by pass  3 Test12= 6.28D-15 2.56D-09 XBig12= 2.76D-06 2.70D-04.
     33 vectors produced by pass  4 Test12= 6.28D-15 2.56D-09 XBig12= 3.96D-09 1.24D-05.
     30 vectors produced by pass  5 Test12= 6.28D-15 2.56D-09 XBig12= 4.55D-12 3.66D-07.
      5 vectors produced by pass  6 Test12= 6.28D-15 2.56D-09 XBig12= 4.42D-15 8.31D-09.
 InvSVY:  IOpt=1 It=  1 EMax= 1.33D-15
 Solved reduced A of dimension   200 with    33 vectors.
 End of Minotr F.D. properties file   721 does not exist.
 End of Minotr F.D. properties file   722 does not exist.
 End of Minotr F.D. properties file   788 does not exist.
 Calling FoFJK, ICntrl=    100127 FMM=F ISym2X=0 I1Cent= 0 IOpClX= 0 NMat=1 NMatS=1 NMatT=0.
 -------------------------------------------------------------------
 Center     Atomic                   Forces (Hartrees/Bohr)
 Number     Number              X              Y              Z
 -------------------------------------------------------------------
      1        6          -0.010005367   -0.006304015    0.005426221
      2        6          -0.002039314   -0.005799368    0.001655988
      3        6           0.038056427    0.009796572   -0.057144605
      4        8          -0.022028502    0.029680618   -0.008122309
      5        8           0.048120491    0.001360471    0.053596649
      6        8           0.008882599    0.022887829    0.025853848
      7        1          -0.054261501   -0.045311945   -0.031846089
      8        1           0.000836222    0.003150367    0.000278847
      9        1           0.000573267    0.000991170    0.000034569
     10        1          -0.008739837   -0.007965455    0.008919003
     11        1           0.000833204   -0.001317462    0.001200795
     12        1          -0.000227687   -0.001168781    0.000147082
 -------------------------------------------------------------------
 Cartesian Forces:  Max     0.057144605 RMS     0.023070745
 IRC-IRC-IRC-IRC-IRC-IRC-IRC-IRC-IRC-IRC-IRC-IRC-IRC-IRC-IRC-IRC-IRC-IRC
 Pt  6 Step number   1 out of a maximum of 100
 Modified Bulirsch-Stoer Extrapolation Cycles:
    EPS =    0.000010000000000
      PEZero:  N= 2 I= 1 D=  8.72D-04 Err=  1.61D-05
      PEZero:  N= 3 I= 2 D=  8.72D-04 Err=  1.07D-05
      PEZero:  N= 3 I= 1 D=  1.74D-03 Err=  2.01D-08
 Maximum DWI energy   std dev =  0.000022686 at pt    14
 Maximum DWI gradient std dev =  0.000955984 at pt    28
 CORRECTOR INTEGRATION CONVERGENCE:
   Recorrection delta-x convergence threshold:    0.010000
   Delta-x Convergence Met
 Point Number:   6          Path Number:   1
   CHANGE IN THE REACTION COORDINATE =    0.16742
   NET REACTION COORDINATE UP TO THIS POINT =    1.00409
  # OF POINTS ALONG THE PATH =   6
  # OF STEPS =   1

 Calculating another point on the path.
 IRC-IRC-IRC-IRC-IRC-IRC-IRC-IRC-IRC-IRC-IRC-IRC-IRC-IRC-IRC-IRC-IRC-IRC
                          Input orientation:                          
 ---------------------------------------------------------------------
 Center     Atomic      Atomic             Coordinates (Angstroms)
 Number     Number       Type             X           Y           Z
 ---------------------------------------------------------------------
      1          6           0       -1.202410    0.907049    0.067623
      2          6           0        0.241148    1.316484   -0.173090
      3          6           0        1.292220    0.320098    0.404544
      4          8           0       -1.522682   -0.501384   -0.149264
      5          8           0       -0.460997   -1.277603    0.210358
      6          8           0        1.756134   -0.522266   -0.399135
      7          1           0        0.259500   -0.656770    0.977903
      8          1           0       -1.471016    1.077963    1.123096
      9          1           0       -1.909459    1.444802   -0.568118
     10          1           0        1.944441    0.675737    1.230883
     11          1           0        0.380694    2.306999    0.282198
     12          1           0        0.466479    1.387245   -1.242065
 ---------------------------------------------------------------------
                    Distance matrix (angstroms):
                    1          2          3          4          5
     1  C    0.000000
     2  C    1.519684   0.000000
     3  C    2.584803   1.559230   0.000000
     4  O    1.460582   2.533044   2.984160   0.000000
     5  O    2.311444   2.714651   2.379942   1.363459   0.000000
     6  O    3.318703   2.393173   1.253273   3.288390   2.420265
     7  H    2.326225   2.284481   1.532815   2.114433   1.222160
     8  H    1.102445   2.160671   2.954006   2.028770   2.720647
     9  H    1.092366   2.190348   3.530125   2.027973   3.180496
    10  H    3.362938   2.298457   1.111174   3.912974   3.262383
    11  H    2.124175   1.099036   2.189435   3.419944   3.682795
    12  H    2.175100   1.094755   2.128843   2.952609   3.173509
                    6          7          8          9         10
     6  O    0.000000
     7  H    2.038195   0.000000
     8  H    3.910552   2.454601   0.000000
     9  H    4.163470   3.392812   1.785220   0.000000
    10  H    2.031657   2.163007   3.440749   4.322085   0.000000
    11  H    3.218818   3.046739   2.376231   2.590603   2.450780
    12  H    2.453563   3.024747   3.073033   2.470344   2.967506
                   11         12
    11  H    0.000000
    12  H    1.782326   0.000000
 Symmetry turned off by external request.
 Stoichiometry    C3H6O3
 Framework group  C1[X(C3H6O3)]
 Deg. of freedom    30
 Full point group                 C1      NOp   1
 Rotational constants (GHZ):           5.6464520           3.3755263           2.3405050
 Standard basis: 6-31+G(d) (6D, 7F)
   126 basis functions,   216 primitive gaussians,   126 cartesian basis functions
    24 alpha electrons       24 beta electrons
       nuclear repulsion energy       251.5178507597 Hartrees.
 NAtoms=   12 NActive=   12 NUniq=   12 SFac= 1.00D+00 NAtFMM=   60 NAOKFM=F Big=F
 Integral buffers will be    131072 words long.
 Raffenetti 2 integral format.
 Two-electron integral symmetry is turned off.
 One-electron integrals computed using PRISM.
 NBasis=   126 RedAO= T EigKep=  1.42D-04  NBF=   126
 NBsUse=   126 1.00D-06 EigRej= -1.00D+00 NBFU=   126
 Initial guess from the checkpoint file:  "/scratch/bell/zhao922/YARP/paper-example/KHP-network/pp_0/IRC-folder/Gau-110154.chk"
 B after Tr=    -0.001264   -0.001014   -0.000545
         Rot=    1.000000   -0.000394    0.000218    0.000157 Ang=  -0.05 deg.
 ExpMin= 4.38D-02 ExpMax= 5.48D+03 ExpMxC= 8.25D+02 IAcc=3 IRadAn=         5 AccDes= 0.00D+00
 Harris functional with IExCor=  402 and IRadAn=       5 diagonalized for initial guess.
 HarFok:  IExCor=  402 AccDes= 0.00D+00 IRadAn=         5 IDoV= 1 UseB2=F ITyADJ=14
 ICtDFT=  3500011 ScaDFX=  1.000000  1.000000  1.000000  1.000000
 FoFCou: FMM=F IPFlag=           0 FMFlag=      100000 FMFlg1=           0
         NFxFlg=           0 DoJE=T BraDBF=F KetDBF=T FulRan=T
         wScrn=  0.000000 ICntrl=       500 IOpCl=  0 I1Cent=   200000004 NGrid=           0
         NMat0=    1 NMatS0=      1 NMatT0=    0 NMatD0=    1 NMtDS0=    0 NMtDT0=    0
 Symmetry not used in FoFCou.
 Keep R1 ints in memory in canonical form, NReq=47237243.
[...]
  10                    0.89677   0.38786   0.30340   2.38928   0.32343
  11                    0.90252   0.40301   0.30360   2.38736   0.31996
  12                    0.90794   0.41838   0.30390   2.38544   0.31651
  13                    0.91301   0.43401   0.30430   2.38352   0.31307
  14                    0.91770   0.44990   0.30481   2.38159   0.30964
  15                    0.92201   0.46608   0.30543   2.37965   0.30621
  16                    0.92590   0.48257   0.30616   2.37770   0.30278
  17                    0.92936   0.49937   0.30701   2.37575   0.29935
  18                    0.93237   0.51652   0.30798   2.37378   0.29594
  19                    0.93488   0.53404   0.30907   2.37180   0.29253
  20                    0.93689   0.55196   0.31028   2.36981   0.28915
  21                    0.93834   0.57030   0.31162   2.36780   0.28580
  22                    0.93921   0.58912   0.31308   2.36577   0.28249
  23                    0.93944   0.60845   0.31467   2.36373   0.27925
  24                    0.93900   0.62835   0.31639   2.36167   0.27608
  25                    0.93782   0.64890   0.31825   2.35958   0.27302
  26                    0.93584   0.67016   0.32023   2.35747   0.27008
  27                    0.93298   0.69225   0.32235   2.35534   0.26730
  28                    0.92916   0.71529   0.32461   2.35319   0.26471
  29                    0.92427   0.73941   0.32701   2.35100   0.26234
  30                    0.91819   0.76479   0.32956   2.34879   0.26024
  31                    0.91080   0.79163   0.33225   2.34655   0.25846
  32                    0.90195   0.82012   0.33510   2.34427   0.25704
  33                    0.89149   0.85047   0.33811   2.34196   0.25605
  34                    0.87929   0.88282   0.34129   2.33959   0.25555
  35                    0.86525   0.91717   0.34467   2.33715   0.25559
  36                    0.84937   0.95330   0.34825   2.33462   0.25623
  37                    0.83177   0.99066   0.35203   2.33199   0.25749
  38                    0.81277   1.02831   0.35601   2.32924   0.25938
  39                    0.79297   1.06485   0.36009   2.32638   0.26183
  40                    0.77324   1.09869   0.36415   2.32347   0.26472
  41                    0.75497   1.12783   0.36791   2.32062   0.26783
  42                    0.73818   1.15286   0.37132   2.31786   0.27086
  43                    0.72399   1.17258   0.37406   2.31539   0.27363
  44                    0.71199   1.18826   0.37615   2.31325   0.27602
  45                    0.70162   1.20114   0.37773   2.31139   0.27801
  46                    0.69238   1.21212   0.37893   2.30976   0.27967
  47                    0.68387   1.22187   0.37989   2.30831   0.28104
  48                    0.67570   1.23090   0.38070   2.30700   0.28220
  49                    0.66735   1.23984   0.38144   2.30574   0.28322
  50                    0.65778   1.24977   0.38221   2.30440   0.28422
  51                    0.64437   1.26323   0.38316   2.30273   0.28533
  52                    0.62602   1.28093   0.38424   2.30083   0.28635
  53                    0.60742   1.29791   0.38503   2.29937   0.28670
  54                    0.59013   1.31277   0.38545   2.29847   0.28624
  55                    0.57476   1.32522   0.38559   2.29815   0.28495
  56                    0.56175   1.33519   0.38560   2.29838   0.28286
  57                    0.55130   1.34283   0.38567   2.29905   0.28004
  58                    0.54332   1.34844   0.38598   2.30003   0.27658
  59                    0.53748   1.35241   0.38662   2.30117   0.27257
  60                    0.53326   1.35520   0.38762   2.30232   0.26806
  61                    0.53011   1.35722   0.38894   2.30340   0.26310
  62                    0.52750   1.35877   0.39051   2.30433   0.25773
  63                    0.52505   1.36009   0.39225   2.30510   0.25194
  64                    0.52244   1.36134   0.39414   2.30570   0.24575
  65                    0.51945   1.36263   0.39613   2.30614   0.23914
  66                    0.51594   1.36401   0.39822   2.30643   0.23210
  67                    0.51183   1.36552   0.40041   2.30657   0.22462
  68                    0.50707   1.36714   0.40269   2.30659   0.21670
  69                    0.50165   1.36886   0.40506   2.30648   0.20834
  70                    0.49560   1.37065   0.40753   2.30625   0.19958
  71                    0.48895   1.37246   0.41009   2.30591   0.19045
  72                    0.48178   1.37424   0.41273   2.30544   0.18100
  73                    0.47414   1.37596   0.41546   2.30485   0.17128
  74                    0.46611   1.37755   0.41826   2.30413   0.16136
  75                    0.45776   1.37898   0.42112   2.30326   0.15133
  76                    0.44918   1.38021   0.42402   2.30223   0.14127
  77                    0.44043   1.38122   0.42695   2.30105   0.13127
  78                    0.43159   1.38199   0.42987   2.29969   0.12144
  79                    0.42270   1.38251   0.43277   2.29814   0.11187
  80                    0.41384   1.38279   0.43562   2.29641   0.10266
  81                    0.40503   1.38283   0.43839   2.29448   0.09390
                          X12       Y12       Z12
   1                    0.39134   1.52828  -1.18246
   2                    0.39363   1.52099  -1.18389
   3                    0.39584   1.51423  -1.18522
   4                    0.39800   1.50787  -1.18647
   5                    0.40015   1.50180  -1.18767
   6                    0.40229   1.49597  -1.18884
   7                    0.40444   1.49031  -1.18998
   8                    0.40661   1.48478  -1.19111
   9                    0.40880   1.47937  -1.19224
  10                    0.41102   1.47404  -1.19336
  11                    0.41327   1.46878  -1.19450
  12                    0.41555   1.46357  -1.19563
  13                    0.41785   1.45841  -1.19679
  14                    0.42019   1.45330  -1.19796
  15                    0.42256   1.44823  -1.19915
  16                    0.42495   1.44320  -1.20036
  17                    0.42737   1.43822  -1.20159
  18                    0.42980   1.43329  -1.20286
  19                    0.43225   1.42843  -1.20415
  20                    0.43471   1.42365  -1.20548
  21                    0.43717   1.41896  -1.20685
  22                    0.43965   1.41439  -1.20825
  23                    0.44212   1.40996  -1.20970
  24                    0.44459   1.40571  -1.21119
  25                    0.44704   1.40166  -1.21273
  26                    0.44948   1.39786  -1.21433
  27                    0.45189   1.39434  -1.21598
  28                    0.45425   1.39117  -1.21770
  29                    0.45655   1.38839  -1.21949
  30                    0.45877   1.38606  -1.22135
  31                    0.46087   1.38424  -1.22329
  32                    0.46281   1.38300  -1.22529
  33                    0.46455   1.38238  -1.22736
  34                    0.46602   1.38241  -1.22949
  35                    0.46718   1.38310  -1.23163
  36                    0.46798   1.38438  -1.23376
  37                    0.46840   1.38613  -1.23581
  38                    0.46846   1.38815  -1.23772
  39                    0.46823   1.39014  -1.23938
  40                    0.46784   1.39181  -1.24072
  41                    0.46741   1.39275  -1.24163
  42                    0.46720   1.39311  -1.24226
  43                    0.46711   1.39275  -1.24253
  44                    0.46708   1.39194  -1.24258
  45                    0.46704   1.39087  -1.24251
  46                    0.46695   1.38969  -1.24237
  47                    0.46676   1.38847  -1.24222
  48                    0.46647   1.38725  -1.24207
  49                    0.46603   1.38602  -1.24193
  50                    0.46530   1.38471  -1.24181
  51                    0.46382   1.38316  -1.24178
  52                    0.46082   1.38173  -1.24210
  53                    0.45642   1.38115  -1.24296
  54                    0.45084   1.38145  -1.24438
  55                    0.44430   1.38245  -1.24638
  56                    0.43706   1.38392  -1.24894
  57                    0.42949   1.38559  -1.25204
  58                    0.42192   1.38720  -1.25561
  59                    0.41463   1.38852  -1.25957
  60                    0.40781   1.38935  -1.26384
  61                    0.40151   1.38956  -1.26833
  62                    0.39570   1.38908  -1.27297
  63                    0.39028   1.38787  -1.27771
  64                    0.38516   1.38592  -1.28254
  65                    0.38022   1.38322  -1.28743
  66                    0.37538   1.37977  -1.29238
  67                    0.37057   1.37557  -1.29739
  68                    0.36574   1.37065  -1.30243
  69                    0.36087   1.36502  -1.30749
  70                    0.35591   1.35872  -1.31256
  71                    0.35087   1.35182  -1.31762
  72                    0.34575   1.34436  -1.32265
  73                    0.34056   1.33645  -1.32762
  74                    0.33532   1.32816  -1.33251
  75                    0.33007   1.31959  -1.33729
  76                    0.32484   1.31085  -1.34195
  77                    0.31969   1.30203  -1.34647
  78                    0.31470   1.29324  -1.35081
  79                    0.30993   1.28457  -1.35497
  80                    0.30548   1.27612  -1.35891
  81                    0.30143   1.26793  -1.36263
 --------------------------------------------------------------------------
 
 Total number of points:                   80
 Total number of gradient calculations:    81
 Total number of Hessian calculations:     81
 IRC-IRC-IRC-IRC-IRC-IRC-IRC-IRC-IRC-IRC-IRC-IRC-IRC-IRC-IRC-IRC-IRC-IRC
                          Input orientation:                          
 ---------------------------------------------------------------------
 Center     Atomic      Atomic             Coordinates (Angstroms)
 Number     Number       Type             X           Y           Z
 ---------------------------------------------------------------------
      1          6           0       -1.173445    0.857783    0.150069
      2          6           0        0.226609    1.414787   -0.104435
      3          6           0        1.295576    0.466212    0.439910
      4          8           0       -1.280998   -0.493132   -0.354370
      5          8           0       -0.216628   -1.266343    0.167936
      6          8           0        1.184286   -0.755088   -0.288571
      7          1           0        1.176685    0.265744    1.513676
      8          1           0       -1.423455    0.865468    1.219806
      9          1           0       -1.942210    1.399241   -0.409845
     10          1           0        2.313217    0.832434    0.257067
     11          1           0        0.304975    2.406567    0.359151
     12          1           0        0.391348    1.528265   -1.182467
 ---------------------------------------------------------------------
                    Distance matrix (angstroms):
                    1          2          3          4          5
     1  C    0.000000
     2  C    1.528129   0.000000
     3  C    2.516625   1.529313   0.000000
     4  O    1.446028   2.444484   2.861811   0.000000
     5  O    2.329748   2.731135   2.315703   1.415466   0.000000
     6  O    2.890096   2.378951   1.426410   2.480036   1.559596
     7  H    2.780836   2.200279   1.098769   3.178946   2.469742
     8  H    1.098590   2.185881   2.856706   2.084254   2.665985
     9  H    1.094385   2.190272   3.475038   2.005331   3.227507
    10  H    3.488396   2.196304   1.096879   3.879351   3.288301
    11  H    2.151319   1.097580   2.180090   3.381224   3.714687
    12  H    2.161892   1.096434   2.139555   2.751096   3.162761
                    6          7          8          9         10
     6  O    0.000000
     7  H    2.071292   0.000000
     8  H    3.420777   2.684540   0.000000
     9  H    3.798791   3.835656   1.791586   0.000000
    10  H    2.022976   1.786591   3.858843   4.344502   0.000000
    11  H    3.344966   2.583783   2.470462   2.579902   2.553694
    12  H    2.577111   3.078945   3.082811   2.461520   2.500004
                   11         12
    11  H    0.000000
    12  H    1.776362   0.000000
 Symmetry turned off by external request.
 Stoichiometry    C3H6O3
 Framework group  C1[X(C3H6O3)]
 Deg. of freedom    30
 Full point group                 C1      NOp   1
 Rotational constants (GHZ):           5.1916749           4.5385825           2.7127516

 **********************************************************************

            Population analysis using the SCF Density.

 **********************************************************************

 Alpha  occ. eigenvalues --  -19.27175 -19.23823 -19.22440 -10.26169 -10.25690
 Alpha  occ. eigenvalues --  -10.21313  -1.16558  -1.03573  -0.89144  -0.77304
 Alpha  occ. eigenvalues --   -0.69893  -0.60772  -0.53709  -0.52273  -0.48993
 Alpha  occ. eigenvalues --   -0.47175  -0.45631  -0.43395  -0.40612  -0.38457
 Alpha  occ. eigenvalues --   -0.37224  -0.32035  -0.29829  -0.28003
 Alpha virt. eigenvalues --   -0.06306   0.00170   0.01726   0.02266   0.02302
 Alpha virt. eigenvalues --    0.03863   0.05972   0.06258   0.07139   0.07621
 Alpha virt. eigenvalues --    0.09186   0.10745   0.11720   0.14452   0.14963
 Alpha virt. eigenvalues --    0.17816   0.17925   0.18635   0.19304   0.20673
 Alpha virt. eigenvalues --    0.22617   0.23370   0.25444   0.25940   0.26830
 Alpha virt. eigenvalues --    0.27556   0.29381   0.29699   0.30203   0.32234
 Alpha virt. eigenvalues --    0.33495   0.33801   0.35303   0.36590   0.39336
 Alpha virt. eigenvalues --    0.42922   0.61691   0.62753   0.63388   0.67179
 Alpha virt. eigenvalues --    0.69053   0.72187   0.75773   0.79019   0.88525
 Alpha virt. eigenvalues --    0.92271   0.94134   0.96655   1.01556   1.02696
 Alpha virt. eigenvalues --    1.06065   1.09189   1.10453   1.18418   1.18719
 Alpha virt. eigenvalues --    1.20501   1.22978   1.26931   1.27776   1.30351
 Alpha virt. eigenvalues --    1.31456   1.41375   1.44516   1.48795   1.50805
 Alpha virt. eigenvalues --    1.57478   1.59439   1.60493   1.64436   1.70564
 Alpha virt. eigenvalues --    1.76038   1.78288   1.81282   1.84921   1.91066
 Alpha virt. eigenvalues --    1.93357   1.97752   1.99157   2.03645   2.07018
 Alpha virt. eigenvalues --    2.09342   2.11641   2.22096   2.25073   2.34285
 Alpha virt. eigenvalues --    2.40265   2.43763   2.45621   2.56492   2.62468
 Alpha virt. eigenvalues --    2.66184   2.70531   2.84238   2.86693   3.14528
 Alpha virt. eigenvalues --    3.17231   3.96422   4.21475   4.29328   4.37572
 Alpha virt. eigenvalues --    4.41930   4.57460
          Condensed to atoms (all electrons):
               1          2          3          4          5          6
     1  C    5.326707   0.122540  -0.072913   0.154956   0.024996  -0.040379
     2  C    0.122540   5.853895   0.027091  -0.023513  -0.083773  -0.021888
     3  C   -0.072913   0.027091   5.388243  -0.027103   0.000021   0.159579
     4  O    0.154956  -0.023513  -0.027103   7.964771   0.179072   0.011355
     5  O    0.024996  -0.083773   0.000021   0.179072   7.745986   0.145025
     6  O   -0.040379  -0.021888   0.159579   0.011355   0.145025   8.026044
     7  H   -0.018358  -0.073940   0.427686   0.000269  -0.000648  -0.046289
     8  H    0.418035  -0.055770  -0.027524  -0.053025   0.010487  -0.001962
     9  H    0.413079  -0.063149   0.013834  -0.046628   0.005277  -0.000210
    10  H    0.011270  -0.058649   0.398229   0.000386   0.005830  -0.041245
    11  H   -0.051515   0.376581  -0.035817   0.005416   0.001299   0.006890
    12  H   -0.052551   0.416585  -0.053480   0.002273  -0.000645  -0.002606
               7          8          9         10         11         12
     1  C   -0.018358   0.418035   0.413079   0.011270  -0.051515  -0.052551
     2  C   -0.073940  -0.055770  -0.063149  -0.058649   0.376581   0.416585
     3  C    0.427686  -0.027524   0.013834   0.398229  -0.035817  -0.053480
     4  O    0.000269  -0.053025  -0.046628   0.000386   0.005416   0.002273
     5  O   -0.000648   0.010487   0.005277   0.005830   0.001299  -0.000645
     6  O   -0.046289  -0.001962  -0.000210  -0.041245   0.006890  -0.002606
     7  H    0.535462   0.003064  -0.000094  -0.033397   0.001138   0.003958
     8  H    0.003064   0.540381  -0.034876  -0.000106  -0.001724   0.004160
     9  H   -0.000094  -0.034876   0.510289  -0.000087  -0.001260  -0.004525
    10  H   -0.033397  -0.000106  -0.000087   0.519615  -0.002228  -0.003641
    11  H    0.001138  -0.001724  -0.001260  -0.002228   0.524286  -0.027288
    12  H    0.003958   0.004160  -0.004525  -0.003641  -0.027288   0.489181
 Mulliken charges:
               1
     1  C   -0.235866
     2  C   -0.416010
     3  C   -0.197846
     4  O   -0.168226
     5  O   -0.032926
     6  O   -0.194313
     7  H    0.201149
     8  H    0.198860
     9  H    0.208351
    10  H    0.204024
    11  H    0.204223
    12  H    0.228579
 Sum of Mulliken charges =  -0.00000
 Mulliken charges with hydrogens summed into heavy atoms:
               1
     1  C    0.171345
     2  C    0.016792
     3  C    0.207328
     4  O   -0.168226
     5  O   -0.032926
     6  O   -0.194313
 APT charges:
               1
     1  C   -0.817764
     2  C   -0.860987
     3  C   -0.790090
     4  O   -0.149085
     5  O   -0.066441
     6  O   -0.178657
     7  H    0.385861
     8  H    0.420008
     9  H    0.556294
    10  H    0.564398
    11  H    0.518616
    12  H    0.417846
 Sum of APT charges =  -0.00000
 APT charges with hydrogens summed into heavy atoms:
               1
     1  C    0.158538
     2  C    0.075475
     3  C    0.160169
     4  O   -0.149085
     5  O   -0.066441
     6  O   -0.178657
 Electronic spatial extent (au):  <R**2>=            485.0365
 Charge=             -0.0000 electrons
 Dipole moment (field-independent basis, Debye):
    X=              0.2057    Y=              3.8668    Z=              1.2181  Tot=              4.0593
 Quadrupole moment (field-independent basis, Debye-Ang):
   XX=            -34.5173   YY=            -36.3697   ZZ=            -35.8357
   XY=             -0.1668   XZ=              0.4113   YZ=             -0.5284
 Traceless Quadrupole moment (field-independent basis, Debye-Ang):
   XX=              1.0569   YY=             -0.7955   ZZ=             -0.2614
   XY=             -0.1668   XZ=              0.4113   YZ=             -0.5284
 Octapole moment (field-independent basis, Debye-Ang**2):
  XXX=              0.2948  YYY=            -12.0618  ZZZ=             -2.3315  XYY=             -2.2923
  XXY=              1.7809  XXZ=              0.6551  XZZ=             -0.7422  YZZ=             -4.2075
  YYZ=             -1.0645  XYZ=              0.3322
 Hexadecapole moment (field-independent basis, Debye-Ang**3):
 XXXX=           -273.0583 YYYY=           -253.8328 ZZZZ=            -73.6518 XXXY=              1.9608
 XXXZ=             -7.7659 YYYX=              2.0073 YYYZ=             -4.7300 ZZZX=             -9.5224
 ZZZY=             -7.2944 XXYY=            -89.4281 XXZZ=            -60.0984 YYZZ=            -54.7332
 XXYZ=             -4.5326 YYXZ=             -1.9448 ZZXY=              0.0086
 N-N= 2.604028255544D+02 E-N=-1.325085796854D+03  KE= 3.402656032670D+02
  Exact polarizability:   0.000   0.000   0.000   0.000   0.000   0.000
 Approx polarizability:  90.347   0.536  68.875  -0.858  -0.796  60.794

 This type of calculation cannot be archived.


 BE LIKE A POSTAGE STAMP.  STICK TO ONE THING UNTIL
 YOU GET THERE -- JOSH BILLINGS
 Job cpu time:       0 days  7 hours 23 minutes 27.0 seconds.
 Elapsed time:       0 days  0 hours 31 minutes 28.9 seconds.
 File lengths (MBytes):  RWF=     28 Int=      0 D2E=      0 Chk=      4 Scr=      1
 Normal termination of Gaussian 16 at Wed Dec 23 22:48:19 2020.
