 Entering Gaussian System, Link 0=g16
 Initial command:
 /apps/cent7/gaussian/g16-B.01/g16-haswell/g16/l1.exe "/scratch/bell/zhao922/YARP/paper-example/KHP-network/pp_0/IRC-folder/Gau-39877.inp" -scrdir="/scratch/bell/zhao922/YARP/paper-example/KHP-network/pp_0/IRC-folder/"
 Entering Link 1 = /apps/cent7/gaussian/g16-B.01/g16-haswell/g16/l1.exe PID=     39878.
  
 Copyright (c) 1988-2017, Gaussian, Inc.  All Rights Reserved.
  
 This is part of the Gaussian(R) 16 program.  It is based on
 the Gaussian(R) 09 system (copyright 2009, Gaussian, Inc.),
 the Gaussian(R) 03 system (copyright 2003, Gaussian, Inc.),
 the Gaussian(R) 98 system (copyright 1998, Gaussian, Inc.),
 the Gaussian(R) 94 system (copyright 1995, Gaussian, Inc.),
 the Gaussian 92(TM) system (copyright 1992, Gaussian, Inc.),
 the Gaussian 90(TM) system (copyright 1990, Gaussian, Inc.),
 the Gaussian 88(TM) system (copyright 1988, Gaussian, Inc.),
 the Gaussian 86(TM) system (copyright 1986, Carnegie Mellon
 University), and the Gaussian 82(TM) system (copyright 1983,
 Carnegie Mellon University). Gaussian is a federally registered
 trademark of Gaussian, Inc.
  
 This software contains proprietary and confidential information,
 including trade secrets, belonging to Gaussian, Inc.
  
 This software is provided under written license and may be
 used, copied, transmitted, or stored only in accord with that
 written license.
  
 The following legend is applicable only to US Government
 contracts under FAR:
  
                    RESTRICTED RIGHTS LEGEND
  
 Use, reproduction and disclosure by the US Government is
 subject to restrictions as set forth in subparagraphs (a)
 and (c) of the Commercial Computer Software - Restricted
 Rights clause in FAR 52.227-19.
  
 Gaussian, Inc.
 340 Quinnipiac St., Bldg. 40, Wallingford CT 06492
  
  
 ---------------------------------------------------------------
 Warning -- This program may not be used in any manner that
 competes with the business of Gaussian, Inc. or will provide
 assistance to any competitor of Gaussian, Inc.  The licensee
 of this program is prohibited from giving any competitor of
 Gaussian, Inc. access to this program.  By using this program,
 the user acknowledges that Gaussian, Inc. is engaged in the
 business of creating and licensing software in the field of
 computational chemistry and represents and warrants to the
 licensee that it is not a competitor of Gaussian, Inc. and that
 it will not use this program in any manner prohibited above.
 ---------------------------------------------------------------
  

 Cite this work as:
 Gaussian 16, Revision B.01,
 M. J. Frisch, G. W. Trucks, H. B. Schlegel, G. E. Scuseria, 
 M. A. Robb, J. R. Cheeseman, G. Scalmani, V. Barone, 
 G. A. Petersson, H. Nakatsuji, X. Li, M. Caricato, A. V. Marenich, 
 J. Bloino, B. G. Janesko, R. Gomperts, B. Mennucci, H. P. Hratchian, 
 J. V. Ortiz, A. F. Izmaylov, J. L. Sonnenberg, D. Williams-Young, 
 F. Ding, F. Lipparini, F. Egidi, J. Goings, B. Peng, A. Petrone, 
 T. Henderson, D. Ranasinghe, V. G. Zakrzewski, J. Gao, N. Rega, 
 G. Zheng, W. Liang, M. Hada, M. Ehara, K. Toyota, R. Fukuda, 
 J. Hasegawa, M. Ishida, T. Nakajima, Y. Honda, O. Kitao, H. Nakai, 
 T. Vreven, K. Throssell, J. A. Montgomery, Jr., J. E. Peralta, 
 F. Ogliaro, M. J. Bearpark, J. J. Heyd, E. N. Brothers, K. N. Kudin, 
 V. N. Staroverov, T. A. Keith, R. Kobayashi, J. Normand, 
 K. Raghavachari, A. P. Rendell, J. C. Burant, S. S. Iyengar, 
 J. Tomasi, M. Cossi, J. M. Millam, M. Klene, C. Adamo, R. Cammi, 
 J. W. Ochterski, R. L. Martin, K. Morokuma, O. Farkas, 
 J. B. Foresman, and D. J. Fox, Gaussian, Inc., Wallingford CT, 2016.
 
 ******************************************
 Gaussian 16:  ES64L-G16RevB.01 20-Dec-2017
                23-Dec-2020 
 ******************************************
 %NProcShared=16
 Will use up to   16 processors via shared memory.
 %Mem=6GB
 ----------------------------------------------------------------------
 # B3LYP/6-31+G* IRC=(CALCALL, maxpoints=40, StepSize=15, maxcyc=100, R
 eport=Cartesians)
 ----------------------------------------------------------------------
 1/6=100,10=4,18=10,26=3,38=1,39=15,42=40,44=3,71=1,129=10,172=1/1,23;
 2/12=2,17=6,18=5,29=1,40=1/2;
 3/5=1,6=6,7=11,11=2,25=1,30=1,71=2,74=-5,140=1/1,2,3;
 4//1;
 5/5=2,38=5/2;
 8/6=4,10=90,11=11/1;
 11/6=1,8=1,9=11,15=111,16=1/1,2,10;
 10/6=1,13=1/2;
 6/7=2,8=2,9=2,10=2,18=1,28=1/1;
 7/10=1,25=1/1,2,3,16;
 1/6=100,10=4,18=10,26=3,39=15,42=40,44=3,71=1,129=10/23(2);
 2/29=1/2;
 99/5=20/99;
 2/29=1/2;
 3/5=1,6=6,7=11,11=2,25=1,30=1,71=2,74=-5,140=1/1,2,3;
 4/5=5,16=3,69=1/1;
 5/5=2,38=5/2;
 8/6=4,10=90,11=11/1;
 11/6=1,8=1,9=11,15=111,16=1/1,2,10;
 10/6=1,13=1/2;
 7/10=1,25=1/1,2,3,16;
 1/6=100,10=4,18=10,26=3,39=15,42=40,44=3,71=1,129=10/23(-8);
 2/29=1/2;
 6/7=2,8=2,9=2,10=2,18=1,19=2,28=1/1;
 99/5=20/99;
 -----------
 pp_22_1 IRC
 -----------
 Symbolic Z-matrix:
 Charge =  0 Multiplicity = 1
 C                    -1.19698   0.54671   0.48672 
 C                    -0.12076   1.25383  -0.34518 
 C                     1.02262   0.26196  -0.4409 
 O                    -1.33101  -0.77156  -0.07028 
 O                     0.01582  -1.20332  -0.33558 
 O                     1.66962  -0.10596   0.63593 
 H                     0.77251  -1.0471    0.61465 
 H                    -0.90292   0.48227   1.5416 
 H                    -2.18999   0.99577   0.40235 
 H                     1.52682   0.17083  -1.41249 
 H                     0.22911   2.1656    0.15084 
 H                    -0.50021   1.50434  -1.34137 
 
 IRC-IRC-IRC-IRC-IRC-IRC-IRC-IRC-IRC-IRC-IRC-IRC-IRC-IRC-IRC-IRC-IRC-IRC
 ------------------------------------------------------------------------
 INPUT DATA FOR L123
 ------------------------------------------------------------------------
 GENERAL PARAMETERS:
 Follow reaction path in both directions.
 Maximum points per path      =  40
 Step size                    =   0.150 bohr
 Integration scheme           = HPC                                 
    Redo corrector integration= Yes                                 
    DWI Weight Power          =  2
    DWI will use Hessian update vectors when possible.
    Max correction cycles     = 100
 Initial Hessian              = CalcFC
 Hessian evaluation           = Analytic at all predictor steps
                              = Update at all corrector steps
 Hessian updating method      = Bofill                              
 ------------------------------------------------------------------------
 IRC-IRC-IRC-IRC-IRC-IRC-IRC-IRC-IRC-IRC-IRC-IRC-IRC-IRC-IRC-IRC-IRC-IRC
                          Input orientation:                          
 ---------------------------------------------------------------------
 Center     Atomic      Atomic             Coordinates (Angstroms)
 Number     Number       Type             X           Y           Z
 ---------------------------------------------------------------------
      1          6           0       -1.196981    0.546708    0.486719
      2          6           0       -0.120761    1.253831   -0.345181
      3          6           0        1.022616    0.261959   -0.440896
      4          8           0       -1.331010   -0.771564   -0.070280
      5          8           0        0.015820   -1.203317   -0.335580
      6          8           0        1.669618   -0.105956    0.635933
      7          1           0        0.772505   -1.047102    0.614654
      8          1           0       -0.902915    0.482271    1.541596
      9          1           0       -2.189986    0.995765    0.402347
     10          1           0        1.526817    0.170832   -1.412491
     11          1           0        0.229110    2.165596    0.150837
     12          1           0       -0.500207    1.504339   -1.341371
 ---------------------------------------------------------------------
                    Distance matrix (angstroms):
                    1          2          3          4          5
     1  C    0.000000
     2  C    1.533079   0.000000
     3  C    2.422429   1.516668   0.000000
     4  O    1.437377   2.375394   2.597129   0.000000
     5  O    2.282466   2.460960   1.780945   1.439009   0.000000
     6  O    2.943743   2.452970   1.309020   3.153655   2.209771
     7  H    2.536823   2.648301   1.700112   2.229312   1.224712
     8  H    1.096992   2.183345   2.772450   2.086507   2.684971
     9  H    1.093083   2.215195   3.401520   2.021056   3.200950
    10  H    3.341760   2.241997   1.098417   3.294968   2.308925
    11  H    2.183426   1.095335   2.145608   3.333133   3.410523
    12  H    2.178179   1.095047   2.161794   2.735990   2.934161
                    6          7          8          9         10
     6  O    0.000000
     7  H    1.300392   0.000000
     8  H    2.790011   2.450558   0.000000
     9  H    4.020559   3.604821   1.793911   0.000000
    10  H    2.071966   2.482270   3.837606   4.217674   0.000000
    11  H    2.733190   3.291175   2.459527   2.698849   2.847301
    12  H    3.348271   3.457699   3.085173   2.480837   2.427370
                   11         12
    11  H    0.000000
    12  H    1.787694   0.000000
 Symmetry turned off by external request.
 Stoichiometry    C3H6O3
 Framework group  C1[X(C3H6O3)]
 Deg. of freedom    30
 Full point group                 C1      NOp   1
 Rotational constants (GHZ):           5.8304690           3.7797939           2.8518435
 Standard basis: 6-31+G(d) (6D, 7F)
   126 basis functions,   216 primitive gaussians,   126 cartesian basis functions
    24 alpha electrons       24 beta electrons
       nuclear repulsion energy       261.3197199880 Hartrees.
 NAtoms=   12 NActive=   12 NUniq=   12 SFac= 1.00D+00 NAtFMM=   60 NAOKFM=F Big=F
 Integral buffers will be    131072 words long.
 Raffenetti 2 integral format.
 Two-electron integral symmetry is turned off.
 One-electron integrals computed using PRISM.
 NBasis=   126 RedAO= T EigKep=  1.17D-04  NBF=   126
 NBsUse=   126 1.00D-06 EigRej= -1.00D+00 NBFU=   126
 ExpMin= 4.38D-02 ExpMax= 5.48D+03 ExpMxC= 8.25D+02 IAcc=3 IRadAn=         5 AccDes= 0.00D+00
 Harris functional with IExCor=  402 and IRadAn=       5 diagonalized for initial guess.
 HarFok:  IExCor=  402 AccDes= 0.00D+00 IRadAn=         5 IDoV= 1 UseB2=F ITyADJ=14
 ICtDFT=  3500011 ScaDFX=  1.000000  1.000000  1.000000  1.000000
 FoFCou: FMM=F IPFlag=           0 FMFlag=      100000 FMFlg1=           0
         NFxFlg=           0 DoJE=T BraDBF=F KetDBF=T FulRan=T
         wScrn=  0.000000 ICntrl=       500 IOpCl=  0 I1Cent=   200000004 NGrid=           0
         NMat0=    1 NMatS0=      1 NMatT0=    0 NMatD0=    1 NMtDS0=    0 NMtDT0=    0
 Symmetry not used in FoFCou.
 Keep R1 ints in memory in canonical form, NReq=47237243.
 Requested convergence on RMS density matrix=1.00D-08 within 128 cycles.
 Requested convergence on MAX density matrix=1.00D-06.
 Requested convergence on             energy=1.00D-06.
 No special actions if energy rises.
 SCF Done:  E(RB3LYP) =  -343.442779949     A.U. after   13 cycles
            NFock= 13  Conv=0.66D-08     -V/T= 2.0089
 DoSCS=F DFT=T ScalE2(SS,OS)=  1.000000  1.000000
 Range of M.O.s used for correlation:     1   126
 NBasis=   126 NAE=    24 NBE=    24 NFC=     0 NFV=     0
 NROrb=    126 NOA=    24 NOB=    24 NVA=   102 NVB=   102

 **** Warning!!: The largest alpha MO coefficient is  0.36126587D+02

 Symmetrizing basis deriv contribution to polar:
 IMax=3 JMax=2 DiffMx= 0.00D+00
 G2DrvN: will do    13 centers at a time, making    1 passes.
 Calling FoFCou, ICntrl=  3107 FMM=F I1Cent=   0 AccDes= 0.00D+00.
 End of G2Drv F.D. properties file   721 does not exist.
 End of G2Drv F.D. properties file   722 does not exist.
 End of G2Drv F.D. properties file   788 does not exist.
          IDoAtm=111111111111
          Differentiating once with respect to nuclear coordinates.
 Keep R1 ints in memory in canonical form, NReq=47193258.
          There are    39 degrees of freedom in the 1st order CPHF.  IDoFFX=6 NUNeed=     0.
     33 vectors produced by pass  0 Test12= 6.28D-15 2.56D-09 XBig12= 1.36D-01 1.38D-01.
 AX will form    33 AO Fock derivatives at one time.
     33 vectors produced by pass  1 Test12= 6.28D-15 2.56D-09 XBig12= 1.95D-02 2.61D-02.
     33 vectors produced by pass  2 Test12= 6.28D-15 2.56D-09 XBig12= 6.45D-04 3.36D-03.
     33 vectors produced by pass  3 Test12= 6.28D-15 2.56D-09 XBig12= 3.89D-06 2.69D-04.
     33 vectors produced by pass  4 Test12= 6.28D-15 2.56D-09 XBig12= 6.43D-09 8.24D-06.
     27 vectors produced by pass  5 Test12= 6.28D-15 2.56D-09 XBig12= 5.93D-12 3.46D-07.
      2 vectors produced by pass  6 Test12= 6.28D-15 2.56D-09 XBig12= 4.90D-15 8.98D-09.
 InvSVY:  IOpt=1 It=  1 EMax= 1.89D-15
 Solved reduced A of dimension   194 with    33 vectors.
 End of Minotr F.D. properties file   721 does not exist.
 End of Minotr F.D. properties file   722 does not exist.
 End of Minotr F.D. properties file   788 does not exist.

 **********************************************************************

            Population analysis using the SCF Density.

 **********************************************************************

 Alpha  occ. eigenvalues --  -19.24790 -19.24233 -19.14505 -10.31943 -10.26968
 Alpha  occ. eigenvalues --  -10.22360  -1.15908  -1.04493  -0.91774  -0.80277
 Alpha  occ. eigenvalues --   -0.68082  -0.61548  -0.54769  -0.53802  -0.51024
 Alpha  occ. eigenvalues --   -0.46611  -0.43710  -0.42767  -0.42095  -0.39372
 Alpha  occ. eigenvalues --   -0.39165  -0.30883  -0.28853  -0.27561
 Alpha virt. eigenvalues --   -0.02530  -0.00957   0.00191   0.01674   0.02722
 Alpha virt. eigenvalues --    0.03550   0.04757   0.06451   0.06850   0.08305
 Alpha virt. eigenvalues --    0.08836   0.11110   0.12332   0.14013   0.14782
 Alpha virt. eigenvalues --    0.17329   0.17823   0.19015   0.20175   0.21426
 Alpha virt. eigenvalues --    0.22829   0.23340   0.24515   0.25535   0.26435
 Alpha virt. eigenvalues --    0.27300   0.29133   0.29419   0.30238   0.31343
 Alpha virt. eigenvalues --    0.31556   0.33879   0.35541   0.36071   0.40133
 Alpha virt. eigenvalues --    0.42413   0.60021   0.62500   0.65336   0.66903
 Alpha virt. eigenvalues --    0.67425   0.74050   0.75944   0.80928   0.84816
 Alpha virt. eigenvalues --    0.89183   0.93202   0.95273   0.96495   1.03192
 Alpha virt. eigenvalues --    1.07127   1.10090   1.13449   1.16110   1.22334
 Alpha virt. eigenvalues --    1.23157   1.26899   1.27830   1.29255   1.32962
 Alpha virt. eigenvalues --    1.35077   1.38599   1.43107   1.45089   1.47094
 Alpha virt. eigenvalues --    1.55349   1.60336   1.64483   1.65307   1.69349
 Alpha virt. eigenvalues --    1.74598   1.76040   1.81484   1.86548   1.87369
 Alpha virt. eigenvalues --    1.93708   1.95206   2.00358   2.03126   2.08037
 Alpha virt. eigenvalues --    2.12757   2.16122   2.20827   2.25694   2.33699
 Alpha virt. eigenvalues --    2.37660   2.40088   2.43091   2.58945   2.61743
 Alpha virt. eigenvalues --    2.65523   2.71187   2.78314   2.88345   2.99207
 Alpha virt. eigenvalues --    3.18458   3.99979   4.16412   4.28836   4.38104
 Alpha virt. eigenvalues --    4.50000   4.57115
          Condensed to atoms (all electrons):
               1          2          3          4          5          6
     1  C    5.673765  -0.319377  -0.042933   0.122416  -0.073668   0.070035
     2  C   -0.319377   6.574898  -0.000062   0.025048  -0.150763  -0.218131
     3  C   -0.042933  -0.000062   5.138799  -0.024893   0.178003   0.363427
     4  O    0.122416   0.025048  -0.024893   8.084838   0.073727   0.004838
     5  O   -0.073668  -0.150763   0.178003   0.073727   8.316427  -0.122421
     6  O    0.070035  -0.218131   0.363427   0.004838  -0.122421   8.430917
     7  H    0.060002  -0.033447  -0.068562  -0.016103   0.068429   0.132355
     8  H    0.413310  -0.059194  -0.023409  -0.044217   0.001999  -0.002255
     9  H    0.412174  -0.061699   0.014700  -0.047721   0.007695  -0.000059
    10  H    0.057123  -0.164724   0.411815  -0.002691  -0.024184  -0.057557
    11  H   -0.036792   0.375364  -0.026565   0.004901   0.004909  -0.005543
    12  H   -0.017149   0.350252  -0.036756   0.000313   0.002820   0.006880
               7          8          9         10         11         12
     1  C    0.060002   0.413310   0.412174   0.057123  -0.036792  -0.017149
     2  C   -0.033447  -0.059194  -0.061699  -0.164724   0.375364   0.350252
     3  C   -0.068562  -0.023409   0.014700   0.411815  -0.026565  -0.036756
     4  O   -0.016103  -0.044217  -0.047721  -0.002691   0.004901   0.000313
     5  O    0.068429   0.001999   0.007695  -0.024184   0.004909   0.002820
     6  O    0.132355  -0.002255  -0.000059  -0.057557  -0.005543   0.006880
     7  H    0.356584   0.004497  -0.000159   0.008725   0.000035  -0.000054
     8  H    0.004497   0.521311  -0.036096  -0.000077  -0.002096   0.003770
     9  H   -0.000159  -0.036096   0.500452  -0.000075   0.000719  -0.005156
    10  H    0.008725  -0.000077  -0.000075   0.567860   0.001211   0.001510
    11  H    0.000035  -0.002096   0.000719   0.001211   0.471492  -0.027131
    12  H   -0.000054   0.003770  -0.005156   0.001510  -0.027131   0.500088
 Mulliken charges:
               1
     1  C   -0.318906
     2  C   -0.318165
     3  C    0.116436
     4  O   -0.180456
     5  O   -0.282973
     6  O   -0.602487
     7  H    0.487698
     8  H    0.222455
     9  H    0.215225
    10  H    0.201063
    11  H    0.239496
    12  H    0.220613
 Sum of Mulliken charges =  -0.00000
 Mulliken charges with hydrogens summed into heavy atoms:
               1
     1  C    0.118774
     2  C    0.141944
     3  C    0.317499
     4  O   -0.180456
     5  O    0.204724
     6  O   -0.602487
 APT charges:
               1
     1  C   -0.847996
     2  C   -0.750362
     3  C   -0.231386
     4  O   -0.255980
     5  O   -0.184683
     6  O   -0.626436
     7  H    0.442132
     8  H    0.402414
     9  H    0.578737
    10  H    0.503473
    11  H    0.511194
    12  H    0.458893
 Sum of APT charges =  -0.00000
 APT charges with hydrogens summed into heavy atoms:
               1
     1  C    0.133155
     2  C    0.219726
     3  C    0.272087
     4  O   -0.255980
     5  O    0.257449
     6  O   -0.626436
 Electronic spatial extent (au):  <R**2>=            482.4233
 Charge=              0.0000 electrons
 Dipole moment (field-independent basis, Debye):
    X=             -1.5484    Y=              2.7341    Z=             -0.6832  Tot=              3.2155
 Quadrupole moment (field-independent basis, Debye-Ang):
   XX=            -40.4019   YY=            -35.6763   ZZ=            -35.4914
   XY=             -2.6173   XZ=             -4.5806   YZ=             -1.7060
 Traceless Quadrupole moment (field-independent basis, Debye-Ang):
   XX=             -3.2120   YY=              1.5135   ZZ=              1.6985
   XY=             -2.6173   XZ=             -4.5806   YZ=             -1.7060
 Octapole moment (field-independent basis, Debye-Ang**2):
  XXX=            -13.6639  YYY=             -1.2983  ZZZ=             -0.9568  XYY=              2.0426
  XXY=              3.0784  XXZ=             -5.6150  XZZ=             -1.1287  YZZ=             -1.5333
  YYZ=              2.6673  XYZ=             -0.8833
 Hexadecapole moment (field-independent basis, Debye-Ang**3):
 XXXX=           -320.2299 YYYY=           -199.6483 ZZZZ=            -96.1914 XXXY=             -4.6838
 XXXZ=            -13.2827 YYYX=              1.0617 YYYZ=             -0.3273 ZZZX=             -1.7457
 ZZZY=             -1.5621 XXYY=            -83.9756 XXZZ=            -68.5472 YYZZ=            -49.9061
 XXYZ=              0.2248 YYXZ=              2.1867 ZZXY=             -1.0268
 N-N= 2.613197199880D+02 E-N=-1.326934832086D+03  KE= 3.403979159761D+02
  Exact polarizability:   0.000   0.000   0.000   0.000   0.000   0.000
 Approx polarizability:  82.551   3.829  71.331   2.414   0.789  65.103
 Calling FoFJK, ICntrl=    100127 FMM=F ISym2X=0 I1Cent= 0 IOpClX= 0 NMat=1 NMatS=1 NMatT=0.
 -------------------------------------------------------------------
 Center     Atomic                   Forces (Hartrees/Bohr)
 Number     Number              X              Y              Z
 -------------------------------------------------------------------
      1        6          -0.000000731    0.000000955    0.000000732
      2        6           0.000000416   -0.000000787   -0.000001556
      3        6           0.000002223   -0.000000105    0.000003870
      4        8           0.000000274    0.000000078    0.000002099
      5        8           0.000002920   -0.000000817    0.000001544
      6        8          -0.000001611    0.000000310   -0.000002539
      7        1          -0.000003252    0.000000970   -0.000001295
      8        1          -0.000000493    0.000001024   -0.000000466
      9        1          -0.000000139    0.000000775   -0.000000523
     10        1          -0.000000064   -0.000001571   -0.000000067
     11        1           0.000000337   -0.000000101   -0.000001248
     12        1           0.000000120   -0.000000730   -0.000000552
 -------------------------------------------------------------------
 Cartesian Forces:  Max     0.000003870 RMS     0.000001404
 IRC-IRC-IRC-IRC-IRC-IRC-IRC-IRC-IRC-IRC-IRC-IRC-IRC-IRC-IRC-IRC-IRC-IRC
          ******** Start new reaction path calculation ********
 Supplied step size of   0.1500 bohr.
    Integration on MW PES will use step size of   0.1587 sqrt(amu)*bohr.
 Point Number:   0          Path Number:   1
 Calculating another point on the path.
 IRC-IRC-IRC-IRC-IRC-IRC-IRC-IRC-IRC-IRC-IRC-IRC-IRC-IRC-IRC-IRC-IRC-IRC
                          Input orientation:                          
 ---------------------------------------------------------------------
 Center     Atomic      Atomic             Coordinates (Angstroms)
 Number     Number       Type             X           Y           Z
 ---------------------------------------------------------------------
      1          6           0       -1.208474    0.594146    0.486141
      2          6           0       -0.132740    1.300628   -0.345666
      3          6           0        1.015691    0.311113   -0.438281
      4          8           0       -1.342925   -0.725117   -0.070242
      5          8           0        0.003957   -1.158200   -0.334685
      6          8           0        1.658778   -0.056035    0.633513
      7          1           0        0.698464   -1.036116    0.581694
      8          1           0       -0.914721    0.528982    1.540848
      9          1           0       -2.202077    1.041751    0.401490
     10          1           0        1.513396    0.215816   -1.414133
     11          1           0        0.217487    2.212269    0.150130
     12          1           0       -0.512208    1.551098   -1.341924
 ---------------------------------------------------------------------
                    Distance matrix (angstroms):
                    1          2          3          4          5
     1  C    0.000000
     2  C    1.532392   0.000000
     3  C    2.425196   1.518753   0.000000
     4  O    1.438087   2.375721   2.602363   0.000000
     5  O    2.283519   2.462649   1.786958   1.439298   0.000000
     6  O    2.943737   2.451298   1.302728   3.154863   2.211472
     7  H    2.510637   2.647880   1.719304   2.165412   1.156285
     8  H    1.096788   2.183087   2.773249   2.086081   2.684804
     9  H    1.093052   2.215268   3.404860   2.020519   3.201299
    10  H    3.341071   2.242366   1.099582   3.293929   2.309011
    11  H    2.182794   1.095245   2.144236   3.333419   3.411847
    12  H    2.177697   1.095107   2.165319   2.736498   2.936196
                    6          7          8          9         10
     6  O    0.000000
     7  H    1.373116   0.000000
     8  H    2.790770   2.443742   0.000000
     9  H    4.020593   3.572553   1.793977   0.000000
    10  H    2.070723   2.492944   3.837414   4.217036   0.000000
    11  H    2.730600   3.312036   2.459562   2.699552   2.848180
    12  H    3.346402   3.443792   3.084982   2.480843   2.427193
                   11         12
    11  H    0.000000
    12  H    1.787688   0.000000
 Symmetry turned off by external request.
 Stoichiometry    C3H6O3
 Framework group  C1[X(C3H6O3)]
 Deg. of freedom    30
 Full point group                 C1      NOp   1
 Rotational constants (GHZ):           5.8293228           3.7806548           2.8481975
 Standard basis: 6-31+G(d) (6D, 7F)
   126 basis functions,   216 primitive gaussians,   126 cartesian basis functions
    24 alpha electrons       24 beta electrons
       nuclear repulsion energy       261.3684311195 Hartrees.
 NAtoms=   12 NActive=   12 NUniq=   12 SFac= 1.00D+00 NAtFMM=   60 NAOKFM=F Big=F
 Integral buffers will be    131072 words long.
 Raffenetti 2 integral format.
 Two-electron integral symmetry is turned off.
 One-electron integrals computed using PRISM.
 NBasis=   126 RedAO= T EigKep=  1.17D-04  NBF=   126
 NBsUse=   126 1.00D-06 EigRej= -1.00D+00 NBFU=   126
 Initial guess from the checkpoint file:  "/scratch/bell/zhao922/YARP/paper-example/KHP-network/pp_0/IRC-folder/Gau-39878.chk"
 B after Tr=    -0.023398    0.087963   -0.001577
         Rot=    1.000000   -0.000253    0.000033    0.000235 Ang=  -0.04 deg.
 ExpMin= 4.38D-02 ExpMax= 5.48D+03 ExpMxC= 8.25D+02 IAcc=3 IRadAn=         5 AccDes= 0.00D+00
 Harris functional with IExCor=  402 and IRadAn=       5 diagonalized for initial guess.
 HarFok:  IExCor=  402 AccDes= 0.00D+00 IRadAn=         5 IDoV= 1 UseB2=F ITyADJ=14
 ICtDFT=  3500011 ScaDFX=  1.000000  1.000000  1.000000  1.000000
 FoFCou: FMM=F IPFlag=           0 FMFlag=      100000 FMFlg1=           0
         NFxFlg=           0 DoJE=T BraDBF=F KetDBF=T FulRan=T
         wScrn=  0.000000 ICntrl=       500 IOpCl=  0 I1Cent=   200000004 NGrid=           0
         NMat0=    1 NMatS0=      1 NMatT0=    0 NMatD0=    1 NMtDS0=    0 NMtDT0=    0
 Symmetry not used in FoFCou.
 Keep R1 ints in memory in canonical form, NReq=47237243.
 Requested convergence on RMS density matrix=1.00D-08 within 128 cycles.
 Requested convergence on MAX density matrix=1.00D-06.
 Requested convergence on             energy=1.00D-06.
 No special actions if energy rises.
 SCF Done:  E(RB3LYP) =  -343.444112625     A.U. after   12 cycles
            NFock= 12  Conv=0.23D-08     -V/T= 2.0089
 DoSCS=F DFT=T ScalE2(SS,OS)=  1.000000  1.000000
 Range of M.O.s used for correlation:     1   126
 NBasis=   126 NAE=    24 NBE=    24 NFC=     0 NFV=     0
 NROrb=    126 NOA=    24 NOB=    24 NVA=   102 NVB=   102

 **** Warning!!: The largest alpha MO coefficient is  0.35837636D+02

 Symmetrizing basis deriv contribution to polar:
 IMax=3 JMax=2 DiffMx= 0.00D+00
 G2DrvN: will do    13 centers at a time, making    1 passes.
 Calling FoFCou, ICntrl=  3107 FMM=F I1Cent=   0 AccDes= 0.00D+00.
 End of G2Drv F.D. properties file   721 does not exist.
 End of G2Drv F.D. properties file   722 does not exist.
 End of G2Drv F.D. properties file   788 does not exist.
          IDoAtm=111111111111
          Differentiating once with respect to nuclear coordinates.
 Keep R1 ints in memory in canonical form, NReq=47193258.
          There are    39 degrees of freedom in the 1st order CPHF.  IDoFFX=6 NUNeed=     0.
     33 vectors produced by pass  0 Test12= 6.28D-15 2.56D-09 XBig12= 1.38D-01 1.45D-01.
 AX will form    33 AO Fock derivatives at one time.
     33 vectors produced by pass  1 Test12= 6.28D-15 2.56D-09 XBig12= 1.87D-02 2.13D-02.
     33 vectors produced by pass  2 Test12= 6.28D-15 2.56D-09 XBig12= 6.41D-04 3.68D-03.
     33 vectors produced by pass  3 Test12= 6.28D-15 2.56D-09 XBig12= 3.79D-06 2.37D-04.
     33 vectors produced by pass  4 Test12= 6.28D-15 2.56D-09 XBig12= 6.23D-09 9.29D-06.
     27 vectors produced by pass  5 Test12= 6.28D-15 2.56D-09 XBig12= 5.58D-12 3.40D-07.
      3 vectors produced by pass  6 Test12= 6.28D-15 2.56D-09 XBig12= 4.34D-15 1.03D-08.
 InvSVY:  IOpt=1 It=  1 EMax= 2.00D-15
 Solved reduced A of dimension   195 with    33 vectors.
 End of Minotr F.D. properties file   721 does not exist.
 End of Minotr F.D. properties file   722 does not exist.
 End of Minotr F.D. properties file   788 does not exist.
 Calling FoFJK, ICntrl=    100127 FMM=F ISym2X=0 I1Cent= 0 IOpClX= 0 NMat=1 NMatS=1 NMatT=0.
 -------------------------------------------------------------------
 Center     Atomic                   Forces (Hartrees/Bohr)
 Number     Number              X              Y              Z
 -------------------------------------------------------------------
      1        6           0.000578348    0.001230749   -0.000278953
      2        6          -0.000661615   -0.000366405    0.000052191
      3        6           0.012080177    0.005360178    0.007997771
      4        8          -0.000804346   -0.001619714    0.001762362
      5        8          -0.001928109   -0.006791764    0.002629792
      6        8           0.003063828    0.010196571   -0.006538698
      7        1          -0.011798654   -0.007230191   -0.005235597
      8        1          -0.000019961   -0.000041209   -0.000040173
      9        1          -0.000086875   -0.000204570   -0.000081080
     10        1          -0.000368397   -0.000452146   -0.000192913
     11        1          -0.000006819   -0.000031930   -0.000055132
     12        1          -0.000047578   -0.000049570   -0.000019570
 -------------------------------------------------------------------
 Cartesian Forces:  Max     0.012080177 RMS     0.004345238
 IRC-IRC-IRC-IRC-IRC-IRC-IRC-IRC-IRC-IRC-IRC-IRC-IRC-IRC-IRC-IRC-IRC-IRC
 Pt  1 Step number   1 out of a maximum of 100
 Modified Bulirsch-Stoer Extrapolation Cycles:
    EPS =    0.000010000000000
      PEZero:  N= 2 I= 1 D=  4.13D-04 Err=  9.15D-04
      PEZero:  N= 3 I= 2 D=  4.13D-04 Err=  6.10D-04
      PEZero:  N= 3 I= 1 D=  8.27D-04 Err=  1.62D-07
 Maximum DWI energy   std dev =  0.000019613 at pt     1
 Maximum DWI gradient std dev =  0.013225404 at pt    25
 CORRECTOR INTEGRATION CONVERGENCE:
   Recorrection delta-x convergence threshold:    0.010000
   Delta-x Convergence Met
 Point Number:   1          Path Number:   1
   CHANGE IN THE REACTION COORDINATE =    0.15864
   NET REACTION COORDINATE UP TO THIS POINT =    0.15864
  # OF POINTS ALONG THE PATH =   1
  # OF STEPS =   1

 Calculating another point on the path.
 IRC-IRC-IRC-IRC-IRC-IRC-IRC-IRC-IRC-IRC-IRC-IRC-IRC-IRC-IRC-IRC-IRC-IRC
                          Input orientation:                          
 ---------------------------------------------------------------------
 Center     Atomic      Atomic             Coordinates (Angstroms)
 Number     Number       Type             X           Y           Z
 ---------------------------------------------------------------------
      1          6           0       -1.208199    0.594705    0.486004
      2          6           0       -0.133017    1.300462   -0.345618
      3          6           0        1.021236    0.313573   -0.434567
      4          8           0       -1.343253   -0.725666   -0.069634
      5          8           0        0.003060   -1.160699   -0.333982
      6          8           0        1.659899   -0.052472    0.631312
      7          1           0        0.636889   -1.073995    0.554663
      8          1           0       -0.914834    0.528807    1.540633
      9          1           0       -2.202519    1.040654    0.401059
     10          1           0        1.511509    0.213280   -1.415053
     11          1           0        0.217316    2.212187    0.149813
     12          1           0       -0.512374    1.550730   -1.342042
 ---------------------------------------------------------------------
                    Distance matrix (angstroms):
                    1          2          3          4          5
     1  C    0.000000
     2  C    1.531569   0.000000
     3  C    2.428347   1.521237   0.000000
     4  O    1.438872   2.376138   2.608449   0.000000
     5  O    2.284944   2.464947   1.794513   1.439338   0.000000
     6  O    2.943797   2.449361   1.295368   3.156492   2.214740
     7  H    2.488700   2.653546   1.746896   2.105242   1.094965
     8  H    1.096653   2.182803   2.774186   2.085715   2.685357
     9  H    1.093049   2.215370   3.408741   2.019845   3.201689
    10  H    3.340107   2.242793   1.100807   3.292633   2.309101
    11  H    2.182056   1.095184   2.143018   3.333844   3.414136
    12  H    2.177133   1.095175   2.169338   2.737035   2.938316
                    6          7          8          9         10
     6  O    0.000000
     7  H    1.447734   0.000000
     8  H    2.791774   2.439048   0.000000
     9  H    4.020723   3.543666   1.794087   0.000000
    10  H    2.068877   2.510342   3.837026   4.216255   0.000000
    11  H    2.727924   3.337505   2.459657   2.700225   2.849451
    12  H    3.344122   3.436201   3.084820   2.480961   2.426974
                   11         12
    11  H    0.000000
    12  H    1.787625   0.000000
 Symmetry turned off by external request.
 Stoichiometry    C3H6O3
 Framework group  C1[X(C3H6O3)]
 Deg. of freedom    30
 Full point group                 C1      NOp   1
 Rotational constants (GHZ):           5.8262685           3.7800046           2.8432653
 Standard basis: 6-31+G(d) (6D, 7F)
   126 basis functions,   216 primitive gaussians,   126 cartesian basis functions
    24 alpha electrons       24 beta electrons
       nuclear repulsion energy       261.4014874241 Hartrees.
 NAtoms=   12 NActive=   12 NUniq=   12 SFac= 1.00D+00 NAtFMM=   60 NAOKFM=F Big=F
 Integral buffers will be    131072 words long.
 Raffenetti 2 integral format.
 Two-electron integral symmetry is turned off.
 One-electron integrals computed using PRISM.
 NBasis=   126 RedAO= T EigKep=  1.17D-04  NBF=   126
 NBsUse=   126 1.00D-06 EigRej= -1.00D+00 NBFU=   126
 Initial guess from the checkpoint file:  "/scratch/bell/zhao922/YARP/paper-example/KHP-network/pp_0/IRC-folder/Gau-39878.chk"
 B after Tr=    -0.001299   -0.000835   -0.000604
         Rot=    1.000000   -0.000222    0.000046    0.000237 Ang=  -0.04 deg.
 ExpMin= 4.38D-02 ExpMax= 5.48D+03 ExpMxC= 8.25D+02 IAcc=3 IRadAn=         5 AccDes= 0.00D+00
 Harris functional with IExCor=  402 and IRadAn=       5 diagonalized for initial guess.
 HarFok:  IExCor=  402 AccDes= 0.00D+00 IRadAn=         5 IDoV= 1 UseB2=F ITyADJ=14
 ICtDFT=  3500011 ScaDFX=  1.000000  1.000000  1.000000  1.000000
 FoFCou: FMM=F IPFlag=           0 FMFlag=      100000 FMFlg1=           0
         NFxFlg=           0 DoJE=T BraDBF=F KetDBF=T FulRan=T
         wScrn=  0.000000 ICntrl=       500 IOpCl=  0 I1Cent=   200000004 NGrid=           0
         NMat0=    1 NMatS0=      1 NMatT0=    0 NMatD0=    1 NMtDS0=    0 NMtDT0=    0
 Symmetry not used in FoFCou.
 Keep R1 ints in memory in canonical form, NReq=47237243.
 Requested convergence on RMS density matrix=1.00D-08 within 128 cycles.
 Requested convergence on MAX density matrix=1.00D-06.
 Requested convergence on             energy=1.00D-06.
 No special actions if energy rises.
 SCF Done:  E(RB3LYP) =  -343.447397205     A.U. after   12 cycles
            NFock= 12  Conv=0.30D-08     -V/T= 2.0088
 DoSCS=F DFT=T ScalE2(SS,OS)=  1.000000  1.000000
 Range of M.O.s used for correlation:     1   126
 NBasis=   126 NAE=    24 NBE=    24 NFC=     0 NFV=     0
 NROrb=    126 NOA=    24 NOB=    24 NVA=   102 NVB=   102

 **** Warning!!: The largest alpha MO coefficient is  0.35597656D+02

 Symmetrizing basis deriv contribution to polar:
 IMax=3 JMax=2 DiffMx= 0.00D+00
 G2DrvN: will do    13 centers at a time, making    1 passes.
 Calling FoFCou, ICntrl=  3107 FMM=F I1Cent=   0 AccDes= 0.00D+00.
 End of G2Drv F.D. properties file   721 does not exist.
 End of G2Drv F.D. properties file   722 does not exist.
 End of G2Drv F.D. properties file   788 does not exist.
          IDoAtm=111111111111
          Differentiating once with respect to nuclear coordinates.
 Keep R1 ints in memory in canonical form, NReq=47193258.
          There are    39 degrees of freedom in the 1st order CPHF.  IDoFFX=6 NUNeed=     0.
     33 vectors produced by pass  0 Test12= 6.28D-15 2.56D-09 XBig12= 1.40D-01 1.39D-01.
 AX will form    33 AO Fock derivatives at one time.
     33 vectors produced by pass  1 Test12= 6.28D-15 2.56D-09 XBig12= 1.78D-02 2.06D-02.
     33 vectors produced by pass  2 Test12= 6.28D-15 2.56D-09 XBig12= 6.32D-04 3.37D-03.
     33 vectors produced by pass  3 Test12= 6.28D-15 2.56D-09 XBig12= 3.56D-06 2.50D-04.
     33 vectors produced by pass  4 Test12= 6.28D-15 2.56D-09 XBig12= 6.06D-09 8.61D-06.
     28 vectors produced by pass  5 Test12= 6.28D-15 2.56D-09 XBig12= 5.47D-12 3.26D-07.
      2 vectors produced by pass  6 Test12= 6.28D-15 2.56D-09 XBig12= 4.27D-15 1.10D-08.
 InvSVY:  IOpt=1 It=  1 EMax= 2.44D-15
 Solved reduced A of dimension   195 with    33 vectors.
 End of Minotr F.D. properties file   721 does not exist.
 End of Minotr F.D. properties file   722 does not exist.
 End of Minotr F.D. properties file   788 does not exist.
 Calling FoFJK, ICntrl=    100127 FMM=F ISym2X=0 I1Cent= 0 IOpClX= 0 NMat=1 NMatS=1 NMatT=0.
 -------------------------------------------------------------------
 Center     Atomic                   Forces (Hartrees/Bohr)
 Number     Number              X              Y              Z
 -------------------------------------------------------------------
      1        6           0.001117579    0.002158081   -0.000560863
      2        6          -0.000997644   -0.000624169    0.000260973
      3        6           0.021485110    0.009571733    0.014418466
      4        8          -0.001906663   -0.002845744    0.003101454
      5        8          -0.007213217   -0.013605330    0.000391323
      6        8           0.005738081    0.018266220   -0.011214616
      7        1          -0.017317716   -0.011551658   -0.005816435
      8        1          -0.000033584   -0.000040648   -0.000056419
      9        1          -0.000142018   -0.000353843   -0.000141867
     10        1          -0.000608059   -0.000841905   -0.000236807
     11        1          -0.000092092    0.000006900   -0.000103218
     12        1          -0.000029776   -0.000139637   -0.000041990
 -------------------------------------------------------------------
 Cartesian Forces:  Max     0.021485110 RMS     0.007431737
 IRC-IRC-IRC-IRC-IRC-IRC-IRC-IRC-IRC-IRC-IRC-IRC-IRC-IRC-IRC-IRC-IRC-IRC
 Pt  2 Step number   1 out of a maximum of 100
 Modified Bulirsch-Stoer Extrapolation Cycles:
    EPS =    0.000010000000000
      PEZero:  N= 2 I= 1 D=  8.26D-04 Err=  7.86D-05
      PEZero:  N= 3 I= 2 D=  8.26D-04 Err=  5.22D-05
      PEZero:  N= 3 I= 1 D=  1.65D-03 Err=  2.91D-07
 Maximum DWI energy   std dev =  0.000039452 at pt    28
 Maximum DWI gradient std dev =  0.025770065 at pt    27
 CORRECTOR INTEGRATION CONVERGENCE:
   Recorrection delta-x convergence threshold:    0.010000
   Delta-x Convergence Met
 Point Number:   2          Path Number:   1
   CHANGE IN THE REACTION COORDINATE =    0.15849
   NET REACTION COORDINATE UP TO THIS POINT =    0.31713
  # OF POINTS ALONG THE PATH =   2
  # OF STEPS =   1

 Calculating another point on the path.
 IRC-IRC-IRC-IRC-IRC-IRC-IRC-IRC-IRC-IRC-IRC-IRC-IRC-IRC-IRC-IRC-IRC-IRC
                          Input orientation:                          
 ---------------------------------------------------------------------
 Center     Atomic      Atomic             Coordinates (Angstroms)
 Number     Number       Type             X           Y           Z
 ---------------------------------------------------------------------
      1          6           0       -1.207828    0.595365    0.485807
      2          6           0       -0.133280    1.300269   -0.345500
      3          6           0        1.027995    0.316626   -0.430006
      4          8           0       -1.343793   -0.726340   -0.068913
      5          8           0        0.000905   -1.164144   -0.334287
      6          8           0        1.661334   -0.048125    0.628748
      7          1           0        0.578320   -1.114495    0.537285
      8          1           0       -0.914948    0.528735    1.540459
      9          1           0       -2.203003    1.039381    0.400542
     10          1           0        1.509432    0.210075   -1.415681
     11          1           0        0.216743    2.212378    0.149408
     12          1           0       -0.512329    1.550055   -1.342229
 ---------------------------------------------------------------------
                    Distance matrix (angstroms):
                    1          2          3          4          5
     1  C    0.000000
     2  C    1.530560   0.000000
     3  C    2.432142   1.524222   0.000000
     4  O    1.439828   2.376759   2.616017   0.000000
     5  O    2.286801   2.468088   1.804649   1.438856   0.000000
     6  O    2.943910   2.447032   1.286516   3.158718   2.220352
     7  H    2.473175   2.667727   1.784928   2.052476   1.046667
     8  H    1.096590   2.182455   2.775383   2.085473   2.686875
     9  H    1.093066   2.215490   3.413434   2.019009   3.201985
    10  H    3.338804   2.243282   1.102130   3.291132   2.309447
    11  H    2.181124   1.095168   2.141897   3.334516   3.417813
    12  H    2.176435   1.095236   2.173958   2.737634   2.940447
                    6          7          8          9         10
     6  O    0.000000
     7  H    1.522639   0.000000
     8  H    2.793066   2.436475   0.000000
     9  H    4.020927   3.520460   1.794229   0.000000
    10  H    2.066260   2.536835   3.836395   4.215281   0.000000
    11  H    2.725158   3.368868   2.459757   2.700771   2.851275
    12  H    3.341219   3.438301   3.084653   2.481213   2.426615
                   11         12
    11  H    0.000000
    12  H    1.787512   0.000000
 Symmetry turned off by external request.
 Stoichiometry    C3H6O3
 Framework group  C1[X(C3H6O3)]
 Deg. of freedom    30
 Full point group                 C1      NOp   1
 Rotational constants (GHZ):           5.8203474           3.7770993           2.8364752
 Standard basis: 6-31+G(d) (6D, 7F)
   126 basis functions,   216 primitive gaussians,   126 cartesian basis functions
    24 alpha electrons       24 beta electrons
       nuclear repulsion energy       261.3769205652 Hartrees.
 NAtoms=   12 NActive=   12 NUniq=   12 SFac= 1.00D+00 NAtFMM=   60 NAOKFM=F Big=F
 Integral buffers will be    131072 words long.
 Raffenetti 2 integral format.
 Two-electron integral symmetry is turned off.
 One-electron integrals computed using PRISM.
 NBasis=   126 RedAO= T EigKep=  1.18D-04  NBF=   126
 NBsUse=   126 1.00D-06 EigRej= -1.00D+00 NBFU=   126
 Initial guess from the checkpoint file:  "/scratch/bell/zhao922/YARP/paper-example/KHP-network/pp_0/IRC-folder/Gau-39878.chk"
 B after Tr=    -0.001247   -0.000901   -0.000403
         Rot=    1.000000   -0.000169    0.000063    0.000232 Ang=  -0.03 deg.
 ExpMin= 4.38D-02 ExpMax= 5.48D+03 ExpMxC= 8.25D+02 IAcc=3 IRadAn=         5 AccDes= 0.00D+00
 Harris functional with IExCor=  402 and IRadAn=       5 diagonalized for initial guess.
 HarFok:  IExCor=  402 AccDes= 0.00D+00 IRadAn=         5 IDoV= 1 UseB2=F ITyADJ=14
 ICtDFT=  3500011 ScaDFX=  1.000000  1.000000  1.000000  1.000000
 FoFCou: FMM=F IPFlag=           0 FMFlag=      100000 FMFlg1=           0
         NFxFlg=           0 DoJE=T BraDBF=F KetDBF=T FulRan=T
         wScrn=  0.000000 ICntrl=       500 IOpCl=  0 I1Cent=   200000004 NGrid=           0
         NMat0=    1 NMatS0=      1 NMatT0=    0 NMatD0=    1 NMtDS0=    0 NMtDT0=    0
 Symmetry not used in FoFCou.
 Keep R1 ints in memory in canonical form, NReq=47237243.
 Requested convergence on RMS density matrix=1.00D-08 within 128 cycles.
 Requested convergence on MAX density matrix=1.00D-06.
 Requested convergence on             energy=1.00D-06.
 No special actions if energy rises.
 SCF Done:  E(RB3LYP) =  -343.451322262     A.U. after   11 cycles
            NFock= 11  Conv=0.10D-07     -V/T= 2.0087
 DoSCS=F DFT=T ScalE2(SS,OS)=  1.000000  1.000000
 Range of M.O.s used for correlation:     1   126
 NBasis=   126 NAE=    24 NBE=    24 NFC=     0 NFV=     0
 NROrb=    126 NOA=    24 NOB=    24 NVA=   102 NVB=   102

 **** Warning!!: The largest alpha MO coefficient is  0.35268330D+02

 Symmetrizing basis deriv contribution to polar:
 IMax=3 JMax=2 DiffMx= 0.00D+00
 G2DrvN: will do    13 centers at a time, making    1 passes.
 Calling FoFCou, ICntrl=  3107 FMM=F I1Cent=   0 AccDes= 0.00D+00.
 End of G2Drv F.D. properties file   721 does not exist.
 End of G2Drv F.D. properties file   722 does not exist.
 End of G2Drv F.D. properties file   788 does not exist.
          IDoAtm=111111111111
          Differentiating once with respect to nuclear coordinates.
 Keep R1 ints in memory in canonical form, NReq=47193258.
          There are    39 degrees of freedom in the 1st order CPHF.  IDoFFX=6 NUNeed=     0.
     33 vectors produced by pass  0 Test12= 6.28D-15 2.56D-09 XBig12= 1.41D-01 1.11D-01.
 AX will form    33 AO Fock derivatives at one time.
     33 vectors produced by pass  1 Test12= 6.28D-15 2.56D-09 XBig12= 1.70D-02 2.31D-02.
     33 vectors produced by pass  2 Test12= 6.28D-15 2.56D-09 XBig12= 6.16D-04 3.97D-03.
     33 vectors produced by pass  3 Test12= 6.28D-15 2.56D-09 XBig12= 3.29D-06 2.60D-04.
     33 vectors produced by pass  4 Test12= 6.28D-15 2.56D-09 XBig12= 5.84D-09 1.19D-05.
     27 vectors produced by pass  5 Test12= 6.28D-15 2.56D-09 XBig12= 5.48D-12 3.14D-07.
      2 vectors produced by pass  6 Test12= 6.28D-15 2.56D-09 XBig12= 4.59D-15 1.17D-08.
 InvSVY:  IOpt=1 It=  1 EMax= 2.44D-15
 Solved reduced A of dimension   194 with    33 vectors.
 End of Minotr F.D. properties file   721 does not exist.
 End of Minotr F.D. properties file   722 does not exist.
 End of Minotr F.D. properties file   788 does not exist.
 Calling FoFJK, ICntrl=    100127 FMM=F ISym2X=0 I1Cent= 0 IOpClX= 0 NMat=1 NMatS=1 NMatT=0.
 -------------------------------------------------------------------
 Center     Atomic                   Forces (Hartrees/Bohr)
 Number     Number              X              Y              Z
 -------------------------------------------------------------------
      1        6           0.001564368    0.002534899   -0.000850878
      2        6          -0.000843632   -0.000749086    0.000599522
      3        6           0.026617963    0.012284624    0.017933634
      4        8          -0.003380745   -0.003581816    0.003688316
      5        8          -0.015150395   -0.019224878   -0.006142959
      6        8           0.007977401    0.022975565   -0.012994956
      7        1          -0.015767737   -0.012608885   -0.001710125
      8        1          -0.000031410    0.000007476   -0.000041911
      9        1          -0.000145693   -0.000404870   -0.000171486
     10        1          -0.000645142   -0.001081533   -0.000097127
     11        1          -0.000263865    0.000123598   -0.000139195
     12        1           0.000068886   -0.000275094   -0.000072834
 -------------------------------------------------------------------
 Cartesian Forces:  Max     0.026617963 RMS     0.009189242
 IRC-IRC-IRC-IRC-IRC-IRC-IRC-IRC-IRC-IRC-IRC-IRC-IRC-IRC-IRC-IRC-IRC-IRC
 Pt  3 Step number   1 out of a maximum of 100
 Modified Bulirsch-Stoer Extrapolation Cycles:
    EPS =    0.000010000000000
      PEZero:  N= 2 I= 1 D=  8.26D-04 Err=  1.10D-04
      PEZero:  N= 3 I= 2 D=  8.26D-04 Err=  7.27D-05
      PEZero:  N= 3 I= 1 D=  1.65D-03 Err=  6.53D-07
 Maximum DWI energy   std dev =  0.000029502 at pt    28
 Maximum DWI gradient std dev =  0.024815803 at pt    26
 CORRECTOR INTEGRATION CONVERGENCE:
   Recorrection delta-x convergence threshold:    0.010000
   Delta-x Convergence Met
 Point Number:   3          Path Number:   1
   CHANGE IN THE REACTION COORDINATE =    0.15821
   NET REACTION COORDINATE UP TO THIS POINT =    0.47534
  # OF POINTS ALONG THE PATH =   3
  # OF STEPS =   1

 Calculating another point on the path.
 IRC-IRC-IRC-IRC-IRC-IRC-IRC-IRC-IRC-IRC-IRC-IRC-IRC-IRC-IRC-IRC-IRC-IRC
                          Input orientation:                          
 ---------------------------------------------------------------------
 Center     Atomic      Atomic             Coordinates (Angstroms)
 Number     Number       Type             X           Y           Z
 ---------------------------------------------------------------------
      1          6           0       -1.207316    0.596087    0.485509
      2          6           0       -0.133436    1.300041   -0.345262
      3          6           0        1.036083    0.320503   -0.424562
      4          8           0       -1.344752   -0.727168   -0.068102
      5          8           0       -0.003122   -1.168882   -0.336038
      6          8           0        1.663359   -0.042793    0.625957
      7          1           0        0.528057   -1.157116    0.533955
      8          1           0       -0.915026    0.528877    1.540343
      9          1           0       -2.203424    1.038042    0.399944
     10          1           0        1.507482    0.206130   -1.415656
     11          1           0        0.215396    2.213093    0.148869
     12          1           0       -0.511805    1.548778   -1.342560
 ---------------------------------------------------------------------
                    Distance matrix (angstroms):
                    1          2          3          4          5
     1  C    0.000000
     2  C    1.529362   0.000000
     3  C    2.436598   1.527598   0.000000
     4  O    1.440963   2.377746   2.625462   0.000000
     5  O    2.289134   2.472377   1.818255   1.437662   0.000000
     6  O    2.944260   2.444369   1.276343   3.162091   2.229500
     7  H    2.467303   2.692251   1.833086   2.013639   1.019400
     8  H    1.096642   2.181990   2.776886   2.085523   2.689751
     9  H    1.093104   2.215586   3.418929   2.018007   3.202111
    10  H    3.337157   2.243880   1.103433   3.289709   2.310445
    11  H    2.179941   1.095223   2.141085   3.335606   3.423542
    12  H    2.175590   1.095279   2.178838   2.738243   2.942366
                    6          7          8          9         10
     6  O    0.000000
     7  H    1.593453   0.000000
     8  H    2.794813   2.436776   0.000000
     9  H    4.021355   3.506803   1.794360   0.000000
    10  H    2.062630   2.572682   3.835444   4.214178   0.000000
    11  H    2.722724   3.406516   2.459804   2.700828   2.853966
    12  H    3.337588   3.453184   3.084463   2.481681   2.426019
                   11         12
    11  H    0.000000
    12  H    1.787315   0.000000
 Symmetry turned off by external request.
 Stoichiometry    C3H6O3
 Framework group  C1[X(C3H6O3)]
 Deg. of freedom    30
 Full point group                 C1      NOp   1
 Rotational constants (GHZ):           5.8103598           3.7706816           2.8271135
 Standard basis: 6-31+G(d) (6D, 7F)
   126 basis functions,   216 primitive gaussians,   126 cartesian basis functions
    24 alpha electrons       24 beta electrons
       nuclear repulsion energy       261.2287220145 Hartrees.
 NAtoms=   12 NActive=   12 NUniq=   12 SFac= 1.00D+00 NAtFMM=   60 NAOKFM=F Big=F
 Integral buffers will be    131072 words long.
 Raffenetti 2 integral format.
 Two-electron integral symmetry is turned off.
 One-electron integrals computed using PRISM.
 NBasis=   126 RedAO= T EigKep=  1.19D-04  NBF=   126
 NBsUse=   126 1.00D-06 EigRej= -1.00D+00 NBFU=   126
 Initial guess from the checkpoint file:  "/scratch/bell/zhao922/YARP/paper-example/KHP-network/pp_0/IRC-folder/Gau-39878.chk"
 B after Tr=    -0.001082   -0.000955   -0.000106
         Rot=    1.000000   -0.000083    0.000083    0.000210 Ang=  -0.03 deg.
 ExpMin= 4.38D-02 ExpMax= 5.48D+03 ExpMxC= 8.25D+02 IAcc=3 IRadAn=         5 AccDes= 0.00D+00
 Harris functional with IExCor=  402 and IRadAn=       5 diagonalized for initial guess.
 HarFok:  IExCor=  402 AccDes= 0.00D+00 IRadAn=         5 IDoV= 1 UseB2=F ITyADJ=14
 ICtDFT=  3500011 ScaDFX=  1.000000  1.000000  1.000000  1.000000
 FoFCou: FMM=F IPFlag=           0 FMFlag=      100000 FMFlg1=           0
         NFxFlg=           0 DoJE=T BraDBF=F KetDBF=T FulRan=T
         wScrn=  0.000000 ICntrl=       500 IOpCl=  0 I1Cent=   200000004 NGrid=           0
         NMat0=    1 NMatS0=      1 NMatT0=    0 NMatD0=    1 NMtDS0=    0 NMtDT0=    0
 Symmetry not used in FoFCou.
 Keep R1 ints in memory in canonical form, NReq=47237243.
 Requested convergence on RMS density matrix=1.00D-08 within 128 cycles.
 Requested convergence on MAX density matrix=1.00D-06.
 Requested convergence on             energy=1.00D-06.
 No special actions if energy rises.
 SCF Done:  E(RB3LYP) =  -343.455064928     A.U. after   11 cycles
            NFock= 11  Conv=0.53D-08     -V/T= 2.0086
 DoSCS=F DFT=T ScalE2(SS,OS)=  1.000000  1.000000
 Range of M.O.s used for correlation:     1   126
 NBasis=   126 NAE=    24 NBE=    24 NFC=     0 NFV=     0
 NROrb=    126 NOA=    24 NOB=    24 NVA=   102 NVB=   102

 **** Warning!!: The largest alpha MO coefficient is  0.34702884D+02

 Symmetrizing basis deriv contribution to polar:
 IMax=3 JMax=2 DiffMx= 0.00D+00
 G2DrvN: will do    13 centers at a time, making    1 passes.
 Calling FoFCou, ICntrl=  3107 FMM=F I1Cent=   0 AccDes= 0.00D+00.
 End of G2Drv F.D. properties file   721 does not exist.
 End of G2Drv F.D. properties file   722 does not exist.
 End of G2Drv F.D. properties file   788 does not exist.
          IDoAtm=111111111111
          Differentiating once with respect to nuclear coordinates.
 Keep R1 ints in memory in canonical form, NReq=47193258.
          There are    39 degrees of freedom in the 1st order CPHF.  IDoFFX=6 NUNeed=     0.
     33 vectors produced by pass  0 Test12= 6.28D-15 2.56D-09 XBig12= 1.42D-01 1.15D-01.
 AX will form    33 AO Fock derivatives at one time.
     33 vectors produced by pass  1 Test12= 6.28D-15 2.56D-09 XBig12= 1.65D-02 2.39D-02.
     33 vectors produced by pass  2 Test12= 6.28D-15 2.56D-09 XBig12= 5.98D-04 3.93D-03.
     33 vectors produced by pass  3 Test12= 6.28D-15 2.56D-09 XBig12= 3.07D-06 2.41D-04.
     33 vectors produced by pass  4 Test12= 6.28D-15 2.56D-09 XBig12= 5.59D-09 1.12D-05.
     27 vectors produced by pass  5 Test12= 6.28D-15 2.56D-09 XBig12= 5.51D-12 3.11D-07.
      2 vectors produced by pass  6 Test12= 6.28D-15 2.56D-09 XBig12= 4.84D-15 1.18D-08.
 InvSVY:  IOpt=1 It=  1 EMax= 3.11D-15
 Solved reduced A of dimension   194 with    33 vectors.
 End of Minotr F.D. properties file   721 does not exist.
 End of Minotr F.D. properties file   722 does not exist.
 End of Minotr F.D. properties file   788 does not exist.
 Calling FoFJK, ICntrl=    100127 FMM=F ISym2X=0 I1Cent= 0 IOpClX= 0 NMat=1 NMatS=1 NMatT=0.
 -------------------------------------------------------------------
 Center     Atomic                   Forces (Hartrees/Bohr)
 Number     Number              X              Y              Z
 -------------------------------------------------------------------
      1        6           0.001854698    0.002247044   -0.001127471
      2        6          -0.000190733   -0.000761856    0.000981750
      3        6           0.027082558    0.013718590    0.017911712
      4        8          -0.005230319   -0.003723369    0.003470641
      5        8          -0.021014489   -0.022657176   -0.010408946
      6        8           0.010168354    0.024294772   -0.011524172
      7        1          -0.011850954   -0.011572508    0.001020293
      8        1          -0.000011232    0.000073789   -0.000024549
      9        1          -0.000086093   -0.000339138   -0.000165982
     10        1          -0.000463272   -0.001116795    0.000140011
     11        1          -0.000486703    0.000278093   -0.000160588
     12        1           0.000228186   -0.000441446   -0.000112699
 -------------------------------------------------------------------
 Cartesian Forces:  Max     0.027082558 RMS     0.009824130
 IRC-IRC-IRC-IRC-IRC-IRC-IRC-IRC-IRC-IRC-IRC-IRC-IRC-IRC-IRC-IRC-IRC-IRC
 Pt  4 Step number   1 out of a maximum of 100
 Modified Bulirsch-Stoer Extrapolation Cycles:
    EPS =    0.000010000000000
      PEZero:  N= 2 I= 1 D=  8.26D-04 Err=  9.15D-05
      PEZero:  N= 3 I= 2 D=  8.26D-04 Err=  6.09D-05
      PEZero:  N= 3 I= 1 D=  1.65D-03 Err=  4.11D-07
 Maximum DWI energy   std dev =  0.000011041 at pt    33
 Maximum DWI gradient std dev =  0.015065164 at pt    35
 CORRECTOR INTEGRATION CONVERGENCE:
   Recorrection delta-x convergence threshold:    0.010000
   Delta-x Convergence Met
 Point Number:   4          Path Number:   1
   CHANGE IN THE REACTION COORDINATE =    0.15819
   NET REACTION COORDINATE UP TO THIS POINT =    0.63353
  # OF POINTS ALONG THE PATH =   4
  # OF STEPS =   1

 Calculating another point on the path.
 IRC-IRC-IRC-IRC-IRC-IRC-IRC-IRC-IRC-IRC-IRC-IRC-IRC-IRC-IRC-IRC-IRC-IRC
                          Input orientation:                          
 ---------------------------------------------------------------------
 Center     Atomic      Atomic             Coordinates (Angstroms)
 Number     Number       Type             X           Y           Z
 ---------------------------------------------------------------------
      1          6           0       -1.206675    0.596722    0.485100
      2          6           0       -0.133359    1.299797   -0.344887
      3          6           0        1.044723    0.325163   -0.418927
      4          8           0       -1.346279   -0.728060   -0.067302
      5          8           0       -0.008653   -1.174756   -0.338647
      6          8           0        1.666126   -0.036821    0.623460
      7          1           0        0.487237   -1.199049    0.536671
      8          1           0       -0.915010    0.529250    1.540235
      9          1           0       -2.203584    1.036961    0.399327
     10          1           0        1.506232    0.201916   -1.414813
     11          1           0        0.213064    2.214457    0.148212
     12          1           0       -0.510601    1.546741   -1.343086
 ---------------------------------------------------------------------
                    Distance matrix (angstroms):
                    1          2          3          4          5
     1  C    0.000000
     2  C    1.528136   0.000000
     3  C    2.441271   1.530774   0.000000
     4  O    1.442111   2.379166   2.636249   0.000000
     5  O    2.291713   2.477701   1.834612   1.436108   0.000000
     6  O    2.945082   2.441800   1.266391   3.166946   2.241747
     7  H    2.469168   2.721491   1.883396   1.987057   1.006319
     8  H    1.096782   2.181377   2.778583   2.085905   2.693570
     9  H    1.093158   2.215574   3.424572   2.016932   3.202190
    10  H    3.335477   2.244625   1.104522   3.288990   2.312625
    11  H    2.178582   1.095335   2.140732   3.337125   3.431174
    12  H    2.174700   1.095306   2.182970   2.738741   2.944045
                    6          7          8          9         10
     6  O    0.000000
     7  H    1.657735   0.000000
     8  H    2.796995   2.441405   0.000000
     9  H    4.022176   3.501303   1.794398   0.000000
    10  H    2.058426   2.609472   3.834302   4.213210   0.000000
    11  H    2.721305   3.446461   2.459716   2.699952   2.857560
    12  H    3.333634   3.473979   3.084214   2.482351   2.425142
                   11         12
    11  H    0.000000
    12  H    1.787038   0.000000
 Symmetry turned off by external request.
 Stoichiometry    C3H6O3
 Framework group  C1[X(C3H6O3)]
 Deg. of freedom    30
 Full point group                 C1      NOp   1
 Rotational constants (GHZ):           5.7971168           3.7608365           2.8155109
 Standard basis: 6-31+G(d) (6D, 7F)
   126 basis functions,   216 primitive gaussians,   126 cartesian basis functions
    24 alpha electrons       24 beta electrons
       nuclear repulsion energy       260.9743212298 Hartrees.
 NAtoms=   12 NActive=   12 NUniq=   12 SFac= 1.00D+00 NAtFMM=   60 NAOKFM=F Big=F
 Integral buffers will be    131072 words long.
 Raffenetti 2 integral format.
 Two-electron integral symmetry is turned off.
 One-electron integrals computed using PRISM.
 NBasis=   126 RedAO= T EigKep=  1.20D-04  NBF=   126
 NBsUse=   126 1.00D-06 EigRej= -1.00D+00 NBFU=   126
 Initial guess from the checkpoint file:  "/scratch/bell/zhao922/YARP/paper-example/KHP-network/pp_0/IRC-folder/Gau-39878.chk"
 B after Tr=    -0.000878   -0.000938    0.000031
         Rot=    1.000000   -0.000035    0.000088    0.000179 Ang=  -0.02 deg.
 ExpMin= 4.38D-02 ExpMax= 5.48D+03 ExpMxC= 8.25D+02 IAcc=3 IRadAn=         5 AccDes= 0.00D+00
 Harris functional with IExCor=  402 and IRadAn=       5 diagonalized for initial guess.
 HarFok:  IExCor=  402 AccDes= 0.00D+00 IRadAn=         5 IDoV= 1 UseB2=F ITyADJ=14
 ICtDFT=  3500011 ScaDFX=  1.000000  1.000000  1.000000  1.000000
 FoFCou: FMM=F IPFlag=           0 FMFlag=      100000 FMFlg1=           0
         NFxFlg=           0 DoJE=T BraDBF=F KetDBF=T FulRan=T
         wScrn=  0.000000 ICntrl=       500 IOpCl=  0 I1Cent=   200000004 NGrid=           0
         NMat0=    1 NMatS0=      1 NMatT0=    0 NMatD0=    1 NMtDS0=    0 NMtDT0=    0
 Symmetry not used in FoFCou.
 Keep R1 ints in memory in canonical form, NReq=47237243.
 Requested convergence on RMS density matrix=1.00D-08 within 128 cycles.
 Requested convergence on MAX density matrix=1.00D-06.
 Requested convergence on             energy=1.00D-06.
 No special actions if energy rises.
 SCF Done:  E(RB3LYP) =  -343.458440130     A.U. after   11 cycles
            NFock= 11  Conv=0.57D-08     -V/T= 2.0086
 DoSCS=F DFT=T ScalE2(SS,OS)=  1.000000  1.000000
 Range of M.O.s used for correlation:     1   126
 NBasis=   126 NAE=    24 NBE=    24 NFC=     0 NFV=     0
 NROrb=    126 NOA=    24 NOB=    24 NVA=   102 NVB=   102

 **** Warning!!: The largest alpha MO coefficient is  0.34050281D+02

 Symmetrizing basis deriv contribution to polar:
 IMax=3 JMax=2 DiffMx= 0.00D+00
 G2DrvN: will do    13 centers at a time, making    1 passes.
 Calling FoFCou, ICntrl=  3107 FMM=F I1Cent=   0 AccDes= 0.00D+00.
 End of G2Drv F.D. properties file   721 does not exist.
 End of G2Drv F.D. properties file   722 does not exist.
 End of G2Drv F.D. properties file   788 does not exist.
          IDoAtm=111111111111
          Differentiating once with respect to nuclear coordinates.
 Keep R1 ints in memory in canonical form, NReq=47193258.
          There are    39 degrees of freedom in the 1st order CPHF.  IDoFFX=6 NUNeed=     0.
     33 vectors produced by pass  0 Test12= 6.28D-15 2.56D-09 XBig12= 1.43D-01 1.16D-01.
 AX will form    33 AO Fock derivatives at one time.
     33 vectors produced by pass  1 Test12= 6.28D-15 2.56D-09 XBig12= 1.61D-02 2.38D-02.
     33 vectors produced by pass  2 Test12= 6.28D-15 2.56D-09 XBig12= 5.81D-04 3.99D-03.
     33 vectors produced by pass  3 Test12= 6.28D-15 2.56D-09 XBig12= 2.89D-06 2.19D-04.
     33 vectors produced by pass  4 Test12= 6.28D-15 2.56D-09 XBig12= 5.34D-09 1.05D-05.
     28 vectors produced by pass  5 Test12= 6.28D-15 2.56D-09 XBig12= 5.47D-12 3.12D-07.
      2 vectors produced by pass  6 Test12= 6.28D-15 2.56D-09 XBig12= 4.92D-15 1.16D-08.
 InvSVY:  IOpt=1 It=  1 EMax= 2.00D-15
 Solved reduced A of dimension   195 with    33 vectors.
 End of Minotr F.D. properties file   721 does not exist.
 End of Minotr F.D. properties file   722 does not exist.
 End of Minotr F.D. properties file   788 does not exist.
 Calling FoFJK, ICntrl=    100127 FMM=F ISym2X=0 I1Cent= 0 IOpClX= 0 NMat=1 NMatS=1 NMatT=0.
 -------------------------------------------------------------------
 Center     Atomic                   Forces (Hartrees/Bohr)
 Number     Number              X              Y              Z
 -------------------------------------------------------------------
      1        6           0.002013253    0.001589758   -0.001328313
      2        6           0.000641499   -0.000710296    0.001267106
      3        6           0.025113780    0.014627479    0.015817506
      4        8          -0.007068150   -0.003420887    0.002994738
      5        8          -0.023621135   -0.024597175   -0.011030023
      6        8           0.012236216    0.023795003   -0.008432669
      7        1          -0.008833912   -0.009995900    0.000894644
      8        1           0.000018811    0.000112517   -0.000029956
      9        1           0.000004883   -0.000209875   -0.000150641
     10        1          -0.000199670   -0.001010252    0.000321258
     11        1          -0.000687909    0.000408940   -0.000171785
     12        1           0.000382332   -0.000589311   -0.000151864
 -------------------------------------------------------------------
 Cartesian Forces:  Max     0.025113780 RMS     0.009759923
 IRC-IRC-IRC-IRC-IRC-IRC-IRC-IRC-IRC-IRC-IRC-IRC-IRC-IRC-IRC-IRC-IRC-IRC
 Reaction path inflection point has been passed.
   Previous lowest Hessian eigenvalue=   -0.0004594584
   Current lowest Hessian eigenvalue =    0.0005643782
 Pt  5 Step number   1 out of a maximum of 100
 Modified Bulirsch-Stoer Extrapolation Cycles:
    EPS =    0.000010000000000
      PEZero:  N= 2 I= 1 D=  8.26D-04 Err=  8.58D-05
      PEZero:  N= 3 I= 2 D=  8.26D-04 Err=  5.71D-05
      PEZero:  N= 3 I= 1 D=  1.65D-03 Err=  1.46D-07
 Maximum DWI energy   std dev =  0.000003027 at pt    34
 Maximum DWI gradient std dev =  0.006176058 at pt    35
 CORRECTOR INTEGRATION CONVERGENCE:
   Recorrection delta-x convergence threshold:    0.010000
   Delta-x Convergence Met
 Point Number:   5          Path Number:   1
   CHANGE IN THE REACTION COORDINATE =    0.15838
   NET REACTION COORDINATE UP TO THIS POINT =    0.79191
  # OF POINTS ALONG THE PATH =   5
  # OF STEPS =   1

 Calculating another point on the path.
 IRC-IRC-IRC-IRC-IRC-IRC-IRC-IRC-IRC-IRC-IRC-IRC-IRC-IRC-IRC-IRC-IRC-IRC
                          Input orientation:                          
 ---------------------------------------------------------------------
 Center     Atomic      Atomic             Coordinates (Angstroms)
 Number     Number       Type             X           Y           Z
 ---------------------------------------------------------------------
      1          6           0       -1.205921    0.597163    0.484591
      2          6           0       -0.132976    1.299550   -0.344397
      3          6           0        1.053445    0.330622   -0.413583
      4          8           0       -1.348437   -0.728932   -0.066535
      5          8           0       -0.015276   -1.181679   -0.341591
      6          8           0        1.669703   -0.030443    0.621580
      7          1           0        0.453728   -1.238947    0.538424
      8          1           0       -0.914850    0.529747    1.540061
      9          1           0       -2.203350    1.036363    0.398697
     10          1           0        1.505957    0.197892   -1.413301
     11          1           0        0.209731    2.216447    0.147458
     12          1           0       -0.508683    1.543941   -1.343821
 ---------------------------------------------------------------------
                    Distance matrix (angstroms):
                    1          2          3          4          5
     1  C    0.000000
     2  C    1.527016   0.000000
     3  C    2.445914   1.533363   0.000000
     4  O    1.443115   2.381028   2.648044   0.000000
     5  O    2.294448   2.484020   1.853214   1.434558   0.000000
     6  O    2.946501   2.439599   1.257658   3.173415   2.256590
     7  H    2.475607   2.750919   1.931197   1.968220   0.998834
     8  H    1.096943   2.180620   2.780389   2.086485   2.697930
     9  H    1.093225   2.215379   3.429954   2.015834   3.202406
    10  H    3.334021   2.245509   1.105360   3.289430   2.316447
    11  H    2.177111   1.095477   2.140784   3.339004   3.440503
    12  H    2.173849   1.095323   2.185802   2.739088   2.945661
                    6          7          8          9         10
     6  O    0.000000
     7  H    1.716389   0.000000
     8  H    2.799524   2.450420   0.000000
     9  H    4.023468   3.500946   1.794325   0.000000
    10  H    2.054188   2.642143   3.833116   4.212521   0.000000
    11  H    2.721181   3.485991   2.459468   2.697903   2.861946
    12  H    3.329692   3.494788   3.083883   2.483123   2.423933
                   11         12
    11  H    0.000000
    12  H    1.786700   0.000000
 Symmetry turned off by external request.
 Stoichiometry    C3H6O3
 Framework group  C1[X(C3H6O3)]
 Deg. of freedom    30
 Full point group                 C1      NOp   1
 Rotational constants (GHZ):           5.7812988           3.7478545           2.8019804
 Standard basis: 6-31+G(d) (6D, 7F)
   126 basis functions,   216 primitive gaussians,   126 cartesian basis functions
    24 alpha electrons       24 beta electrons
       nuclear repulsion energy       260.6444723381 Hartrees.
 NAtoms=   12 NActive=   12 NUniq=   12 SFac= 1.00D+00 NAtFMM=   60 NAOKFM=F Big=F
 Integral buffers will be    131072 words long.
 Raffenetti 2 integral format.
 Two-electron integral symmetry is turned off.
 One-electron integrals computed using PRISM.
 NBasis=   126 RedAO= T EigKep=  1.20D-04  NBF=   126
 NBsUse=   126 1.00D-06 EigRej= -1.00D+00 NBFU=   126
 Initial guess from the checkpoint file:  "/scratch/bell/zhao922/YARP/paper-example/KHP-network/pp_0/IRC-folder/Gau-39878.chk"
 B after Tr=    -0.000707   -0.000884    0.000019
         Rot=    1.000000   -0.000027    0.000084    0.000153 Ang=  -0.02 deg.
 ExpMin= 4.38D-02 ExpMax= 5.48D+03 ExpMxC= 8.25D+02 IAcc=3 IRadAn=         5 AccDes= 0.00D+00
 Harris functional with IExCor=  402 and IRadAn=       5 diagonalized for initial guess.
 HarFok:  IExCor=  402 AccDes= 0.00D+00 IRadAn=         5 IDoV= 1 UseB2=F ITyADJ=14
 ICtDFT=  3500011 ScaDFX=  1.000000  1.000000  1.000000  1.000000
 FoFCou: FMM=F IPFlag=           0 FMFlag=      100000 FMFlg1=           0
         NFxFlg=           0 DoJE=T BraDBF=F KetDBF=T FulRan=T
         wScrn=  0.000000 ICntrl=       500 IOpCl=  0 I1Cent=   200000004 NGrid=           0
         NMat0=    1 NMatS0=      1 NMatT0=    0 NMatD0=    1 NMtDS0=    0 NMtDT0=    0
 Symmetry not used in FoFCou.
 Keep R1 ints in memory in canonical form, NReq=47237243.
 Requested convergence on RMS density matrix=1.00D-08 within 128 cycles.
 Requested convergence on MAX density matrix=1.00D-06.
 Requested convergence on             energy=1.00D-06.
 No special actions if energy rises.
 SCF Done:  E(RB3LYP) =  -343.461475256     A.U. after   11 cycles
            NFock= 11  Conv=0.50D-08     -V/T= 2.0085
 DoSCS=F DFT=T ScalE2(SS,OS)=  1.000000  1.000000
 Range of M.O.s used for correlation:     1   126
 NBasis=   126 NAE=    24 NBE=    24 NFC=     0 NFV=     0
 NROrb=    126 NOA=    24 NOB=    24 NVA=   102 NVB=   102

 **** Warning!!: The largest alpha MO coefficient is  0.33484481D+02

 Symmetrizing basis deriv contribution to polar:
 IMax=3 JMax=2 DiffMx= 0.00D+00
 G2DrvN: will do    13 centers at a time, making    1 passes.
 Calling FoFCou, ICntrl=  3107 FMM=F I1Cent=   0 AccDes= 0.00D+00.
 End of G2Drv F.D. properties file   721 does not exist.
 End of G2Drv F.D. properties file   722 does not exist.
 End of G2Drv F.D. properties file   788 does not exist.
          IDoAtm=111111111111
          Differentiating once with respect to nuclear coordinates.
 Keep R1 ints in memory in canonical form, NReq=47193258.
          There are    39 degrees of freedom in the 1st order CPHF.  IDoFFX=6 NUNeed=     0.
     33 vectors produced by pass  0 Test12= 6.28D-15 2.56D-09 XBig12= 1.44D-01 1.14D-01.
 AX will form    33 AO Fock derivatives at one time.
     33 vectors produced by pass  1 Test12= 6.28D-15 2.56D-09 XBig12= 1.59D-02 2.32D-02.
     33 vectors produced by pass  2 Test12= 6.28D-15 2.56D-09 XBig12= 5.68D-04 4.05D-03.
     33 vectors produced by pass  3 Test12= 6.28D-15 2.56D-09 XBig12= 2.76D-06 2.10D-04.
     33 vectors produced by pass  4 Test12= 6.28D-15 2.56D-09 XBig12= 5.12D-09 9.78D-06.
     28 vectors produced by pass  5 Test12= 6.28D-15 2.56D-09 XBig12= 5.40D-12 3.30D-07.
      2 vectors produced by pass  6 Test12= 6.28D-15 2.56D-09 XBig12= 4.87D-15 1.12D-08.
 InvSVY:  IOpt=1 It=  1 EMax= 1.78D-15
 Solved reduced A of dimension   195 with    33 vectors.
 End of Minotr F.D. properties file   721 does not exist.
 End of Minotr F.D. properties file   722 does not exist.
 End of Minotr F.D. properties file   788 does not exist.
 Calling FoFJK, ICntrl=    100127 FMM=F ISym2X=0 I1Cent= 0 IOpClX= 0 NMat=1 NMatS=1 NMatT=0.
 -------------------------------------------------------------------
 Center     Atomic                   Forces (Hartrees/Bohr)
 Number     Number              X              Y              Z
 -------------------------------------------------------------------
      1        6           0.002105621    0.000826046   -0.001439826
      2        6           0.001427198   -0.000635701    0.001393133
      3        6           0.022512313    0.015263138    0.013137636
      4        8          -0.008602840   -0.002910742    0.002626329
      5        8          -0.024582473   -0.025703704   -0.010655819
      6        8           0.013845476    0.022613401   -0.005168223
      7        1          -0.006568400   -0.008480302    0.000234283
      8        1           0.000053873    0.000112538   -0.000047757
      9        1           0.000100788   -0.000067118   -0.000139935
     10        1           0.000044535   -0.000821482    0.000416528
     11        1          -0.000832201    0.000495410   -0.000175747
     12        1           0.000496109   -0.000691484   -0.000180601
 -------------------------------------------------------------------
 Cartesian Forces:  Max     0.025703704 RMS     0.009485890
 IRC-IRC-IRC-IRC-IRC-IRC-IRC-IRC-IRC-IRC-IRC-IRC-IRC-IRC-IRC-IRC-IRC-IRC
 Pt  6 Step number   1 out of a maximum of 100
 Modified Bulirsch-Stoer Extrapolation Cycles:
    EPS =    0.000010000000000
      PEZero:  N= 2 I= 1 D=  8.26D-04 Err=  7.82D-05
      PEZero:  N= 3 I= 2 D=  8.26D-04 Err=  5.20D-05
      PEZero:  N= 3 I= 1 D=  1.65D-03 Err=  1.53D-07
 Maximum DWI energy   std dev =  0.000001207 at pt    34
 Maximum DWI gradient std dev =  0.003168706 at pt    35
 CORRECTOR INTEGRATION CONVERGENCE:
   Recorrection delta-x convergence threshold:    0.010000
   Delta-x Convergence Met
 Point Number:   6          Path Number:   1
   CHANGE IN THE REACTION COORDINATE =    0.15842
   NET REACTION COORDINATE UP TO THIS POINT =    0.95033
  # OF POINTS ALONG THE PATH =   6
  # OF STEPS =   1

 Calculating another point on the path.
 IRC-IRC-IRC-IRC-IRC-IRC-IRC-IRC-IRC-IRC-IRC-IRC-IRC-IRC-IRC-IRC-IRC-IRC
                          Input orientation:                          
 ---------------------------------------------------------------------
 Center     Atomic      Atomic             Coordinates (Angstroms)
 Number     Number       Type             X           Y           Z
 ---------------------------------------------------------------------
      1          6           0       -1.205059    0.597344    0.484002
      2          6           0       -0.132267    1.299307   -0.343838
      3          6           0        1.062001    0.336818   -0.408764
      4          8           0       -1.351213   -0.729727   -0.065777
      5          8           0       -0.022705   -1.189522   -0.344715
      6          8           0        1.674024   -0.023823    0.620430
      7          1           0        0.426407   -1.276091    0.537918
      8          1           0       -0.914501    0.530218    1.539784
      9          1           0       -2.202649    1.036363    0.398047
     10          1           0        1.506703    0.194485   -1.411333
     11          1           0        0.205534    2.218951    0.146628
     12          1           0       -0.506145    1.540496   -1.344738
 ---------------------------------------------------------------------
                    Distance matrix (angstroms):
                    1          2          3          4          5
     1  C    0.000000
     2  C    1.526092   0.000000
     3  C    2.450402   1.535212   0.000000
     4  O    1.443861   2.383302   2.660595   0.000000
     5  O    2.297308   2.491239   1.873607   1.433231   0.000000
     6  O    2.948488   2.437862   1.250550   3.181390   2.273598
     7  H    2.484823   2.778900   1.975263   1.955222   0.994101
     8  H    1.097090   2.179776   2.782230   2.087104   2.702617
     9  H    1.093303   2.214953   3.434858   2.014733   3.202876
    10  H    3.332904   2.246419   1.105967   3.291258   2.322120
    11  H    2.175593   1.095633   2.141126   3.341150   3.451261
    12  H    2.173088   1.095335   2.187228   2.739306   2.947331
                    6          7          8          9         10
     6  O    0.000000
     7  H    1.769614   0.000000
     8  H    2.802256   2.462624   0.000000
     9  H    4.025176   3.504132   1.794177   0.000000
    10  H    2.050296   2.670059   3.831976   4.212114   0.000000
    11  H    2.722313   3.523806   2.459102   2.694638   2.866835
    12  H    3.325976   3.513859   3.083486   2.483863   2.422341
                   11         12
    11  H    0.000000
    12  H    1.786326   0.000000
 Symmetry turned off by external request.
 Stoichiometry    C3H6O3
 Framework group  C1[X(C3H6O3)]
 Deg. of freedom    30
 Full point group                 C1      NOp   1
 Rotational constants (GHZ):           5.7633660           3.7320465           2.7868978
 Standard basis: 6-31+G(d) (6D, 7F)
   126 basis functions,   216 primitive gaussians,   126 cartesian basis functions
    24 alpha electrons       24 beta electrons
       nuclear repulsion energy       260.2524592250 Hartrees.
 NAtoms=   12 NActive=   12 NUniq=   12 SFac= 1.00D+00 NAtFMM=   60 NAOKFM=F Big=F
 Integral buffers will be    131072 words long.
 Raffenetti 2 integral format.
 Two-electron integral symmetry is turned off.
 One-electron integrals computed using PRISM.
 NBasis=   126 RedAO= T EigKep=  1.21D-04  NBF=   126
 NBsUse=   126 1.00D-06 EigRej= -1.00D+00 NBFU=   126
 Initial guess from the checkpoint file:  "/scratch/bell/zhao922/YARP/paper-example/KHP-network/pp_0/IRC-folder/Gau-39878.chk"
 B after Tr=    -0.000553   -0.000809   -0.000024
         Rot=    1.000000   -0.000030    0.000078    0.000128 Ang=  -0.02 deg.
 ExpMin= 4.38D-02 ExpMax= 5.48D+03 ExpMxC= 8.25D+02 IAcc=3 IRadAn=         5 AccDes= 0.00D+00
 Harris functional with IExCor=  402 and IRadAn=       5 diagonalized for initial guess.
 HarFok:  IExCor=  402 AccDes= 0.00D+00 IRadAn=         5 IDoV= 1 UseB2=F ITyADJ=14
 ICtDFT=  3500011 ScaDFX=  1.000000  1.000000  1.000000  1.000000
 FoFCou: FMM=F IPFlag=           0 FMFlag=      100000 FMFlg1=           0
         NFxFlg=           0 DoJE=T BraDBF=F KetDBF=T FulRan=T
         wScrn=  0.000000 ICntrl=       500 IOpCl=  0 I1Cent=   200000004 NGrid=           0
         NMat0=    1 NMatS0=      1 NMatT0=    0 NMatD0=    1 NMtDS0=    0 NMtDT0=    0
 Symmetry not used in FoFCou.
 Keep R1 ints in memory in canonical form, NReq=47237243.
 Requested convergence on RMS density matrix=1.00D-08 within 128 cycles.
 Requested convergence on MAX density matrix=1.00D-06.
 Requested convergence on             energy=1.00D-06.
 No special actions if energy rises.
 SCF Done:  E(RB3LYP) =  -343.464234187     A.U. after   11 cycles
            NFock= 11  Conv=0.42D-08     -V/T= 2.0085
 DoSCS=F DFT=T ScalE2(SS,OS)=  1.000000  1.000000
 Range of M.O.s used for correlation:     1   126
 NBasis=   126 NAE=    24 NBE=    24 NFC=     0 NFV=     0
 NROrb=    126 NOA=    24 NOB=    24 NVA=   102 NVB=   102

[...]
   5                    0.03062  -1.33474   0.37964   2.10524   0.15606
   6                    0.03147  -1.33851   0.37899   2.10342   0.16366
   7                    0.03389  -1.34215   0.37708   2.10297   0.16899
   8                    0.03729  -1.34515   0.37447   2.10340   0.17220
   9                    0.04133  -1.34749   0.37155   2.10427   0.17411
  10                    0.04588  -1.34920   0.36845   2.10541   0.17515
  11                    0.05090  -1.35032   0.36519   2.10682   0.17547
  12                    0.05641  -1.35089   0.36168   2.10860   0.17508
  13                    0.06247  -1.35103   0.35772   2.11101   0.17382
  14                    0.06929  -1.35100   0.35294   2.11449   0.17138
  15                    0.07703  -1.35125   0.34682   2.11963   0.16757
  16                    0.08543  -1.35239   0.33919   2.12658   0.16305
  17                    0.09413  -1.35460   0.33015   2.13495   0.15908
  18                    0.10360  -1.35764   0.31961   2.14443   0.15626
  19                    0.11437  -1.36102   0.30808   2.15433   0.15448
  20                    0.12622  -1.36434   0.29657   2.16373   0.15341
  21                    0.13864  -1.36744   0.28568   2.17221   0.15274
  22                    0.15124  -1.37037   0.27555   2.17973   0.15229
  23                    0.16375  -1.37320   0.26615   2.18641   0.15198
  24                    0.17593  -1.37603   0.25742   2.19233   0.15175
  25                    0.18751  -1.37894   0.24932   2.19758   0.15157
  26                    0.19820  -1.38203   0.24187   2.20216   0.15143
  27                    0.20767  -1.38537   0.23513   2.20609   0.15132
  28                    0.21553  -1.38899   0.22923   2.20932   0.15125
  29                    0.22144  -1.39287   0.22432   2.21180   0.15120
  30                    0.22513  -1.39685   0.22061   2.21348   0.15117
  31                    0.22661  -1.40065   0.21821   2.21435   0.15115
  32                    0.22626  -1.40398   0.21703   2.21451   0.15112
  33                    0.22486  -1.40666   0.21675   2.21420   0.15104
  34                    0.22316  -1.40873   0.21686   2.21373   0.15091
  35                    0.22145  -1.41037   0.21708   2.21327   0.15076
  36                    0.21970  -1.41176   0.21728   2.21287   0.15058
  37                    0.21779  -1.41297   0.21740   2.21255   0.15036
  38                    0.21572  -1.41409   0.21745   2.21230   0.15011
  39                    0.21320  -1.41503   0.21729   2.21221   0.14980
  40                    0.21000  -1.41565   0.21671   2.21241   0.14940
  41                    0.20611  -1.41561   0.21537   2.21311   0.14887
  42                    0.20192  -1.41478   0.21305   2.21447   0.14821
  43                    0.19790  -1.41327   0.20973   2.21645   0.14746
  44                    0.19450  -1.41131   0.20553   2.21895   0.14662
  45                    0.19204  -1.40907   0.20070   2.22180   0.14574
  46                    0.19069  -1.40667   0.19548   2.22483   0.14482
  47                    0.19046  -1.40416   0.19004   2.22793   0.14386
  48                    0.19131  -1.40159   0.18453   2.23101   0.14288
  49                    0.19314  -1.39897   0.17903   2.23401   0.14187
  50                    0.19587  -1.39633   0.17360   2.23688   0.14081
  51                    0.19940  -1.39366   0.16827   2.23962   0.13971
  52                    0.20365  -1.39099   0.16306   2.24221   0.13855
  53                    0.20855  -1.38831   0.15798   2.24465   0.13731
  54                    0.21404  -1.38564   0.15305   2.24693   0.13597
  55                    0.22004  -1.38296   0.14825   2.24905   0.13450
  56                    0.22650  -1.38029   0.14359   2.25101   0.13288
  57                    0.23336  -1.37761   0.13906   2.25282   0.13108
  58                    0.24056  -1.37492   0.13465   2.25448   0.12906
  59                    0.24804  -1.37223   0.13036   2.25600   0.12678
  60                    0.25574  -1.36952   0.12618   2.25739   0.12422
  61                    0.26361  -1.36681   0.12209   2.25864   0.12134
  62                    0.27158  -1.36407   0.11808   2.25978   0.11812
  63                    0.27959  -1.36133   0.11415   2.26078   0.11454
  64                    0.28758  -1.35857   0.11029   2.26168   0.11059
  65                    0.29550  -1.35579   0.10649   2.26246   0.10627
  66                    0.30329  -1.35301   0.10275   2.26312   0.10160
  67                    0.31090  -1.35023   0.09908   2.26366   0.09659
  68                    0.31828  -1.34744   0.09547   2.26409   0.09130
  69                    0.32537  -1.34466   0.09194   2.26439   0.08577
  70                    0.33211  -1.34190   0.08849   2.26455   0.08007
  71                    0.33846  -1.33916   0.08514   2.26457   0.07427
  72                    0.34434  -1.33644   0.08190   2.26443   0.06844
  73                    0.34969  -1.33377   0.07880   2.26414   0.06267
  74                    0.35444  -1.33114   0.07584   2.26367   0.05704
  75                    0.35850  -1.32856   0.07305   2.26303   0.05163
  76                    0.36179  -1.32603   0.07044   2.26220   0.04653
  77                    0.36421  -1.32358   0.06805   2.26119   0.04181
                          X12       Y12       Z12
   1                   -0.45059   1.52112  -1.34571
   2                   -0.45142   1.52354  -1.34096
   3                   -0.45158   1.52672  -1.33594
   4                   -0.45128   1.53069  -1.33067
   5                   -0.45094   1.53563  -1.32522
   6                   -0.45144   1.54099  -1.32038
   7                   -0.45322   1.54532  -1.31692
   8                   -0.45589   1.54826  -1.31465
   9                   -0.45911   1.55017  -1.31304
  10                   -0.46269   1.55131  -1.31182
  11                   -0.46660   1.55182  -1.31090
  12                   -0.47087   1.55177  -1.31027
  13                   -0.47566   1.55119  -1.31003
  14                   -0.48123   1.55020  -1.31041
  15                   -0.48772   1.54930  -1.31179
  16                   -0.49450   1.54950  -1.31432
  17                   -0.50037   1.55118  -1.31753
  18                   -0.50475   1.55347  -1.32084
  19                   -0.50767   1.55547  -1.32387
  20                   -0.50946   1.55685  -1.32649
  21                   -0.51050   1.55768  -1.32875
  22                   -0.51106   1.55811  -1.33072
  23                   -0.51131   1.55824  -1.33248
  24                   -0.51135   1.55815  -1.33406
  25                   -0.51124   1.55787  -1.33550
  26                   -0.51102   1.55742  -1.33680
  27                   -0.51073   1.55681  -1.33797
  28                   -0.51042   1.55606  -1.33900
  29                   -0.51012   1.55518  -1.33987
  30                   -0.50992   1.55424  -1.34056
  31                   -0.50989   1.55334  -1.34106
  32                   -0.51007   1.55260  -1.34137
  33                   -0.51044   1.55211  -1.34155
  34                   -0.51086   1.55183  -1.34164
  35                   -0.51126   1.55164  -1.34171
  36                   -0.51162   1.55148  -1.34178
  37                   -0.51192   1.55130  -1.34185
  38                   -0.51219   1.55108  -1.34193
  39                   -0.51236   1.55071  -1.34205
  40                   -0.51231   1.55003  -1.34224
  41                   -0.51179   1.54876  -1.34256
  42                   -0.51059   1.54673  -1.34309
  43                   -0.50868   1.54394  -1.34382
  44                   -0.50614   1.54050  -1.34474
  45                   -0.50315   1.53660  -1.34578
  46                   -0.49986   1.53244  -1.34691
  47                   -0.49639   1.52815  -1.34807
  48                   -0.49282   1.52382  -1.34926
  49                   -0.48921   1.51950  -1.35045
  50                   -0.48558   1.51523  -1.35165
  51                   -0.48199   1.51100  -1.35285
  52                   -0.47844   1.50682  -1.35405
  53                   -0.47497   1.50269  -1.35527
  54                   -0.47160   1.49857  -1.35651
  55                   -0.46835   1.49444  -1.35778
  56                   -0.46524   1.49027  -1.35908
  57                   -0.46229   1.48601  -1.36043
  58                   -0.45952   1.48161  -1.36183
  59                   -0.45694   1.47703  -1.36328
  60                   -0.45457   1.47221  -1.36479
  61                   -0.45242   1.46710  -1.36637
  62                   -0.45050   1.46166  -1.36802
  63                   -0.44882   1.45585  -1.36973
  64                   -0.44736   1.44965  -1.37150
  65                   -0.44613   1.44304  -1.37332
  66                   -0.44510   1.43601  -1.37518
  67                   -0.44426   1.42859  -1.37706
  68                   -0.44358   1.42081  -1.37896
  69                   -0.44302   1.41271  -1.38085
  70                   -0.44255   1.40435  -1.38272
  71                   -0.44214   1.39579  -1.38453
  72                   -0.44174   1.38711  -1.38629
  73                   -0.44131   1.37838  -1.38795
  74                   -0.44084   1.36969  -1.38951
  75                   -0.44028   1.36111  -1.39094
  76                   -0.43962   1.35271  -1.39223
  77                   -0.43884   1.34457  -1.39334
 --------------------------------------------------------------------------
 
 Total number of points:                   76
 Total number of gradient calculations:    78
 Total number of Hessian calculations:     77
 IRC-IRC-IRC-IRC-IRC-IRC-IRC-IRC-IRC-IRC-IRC-IRC-IRC-IRC-IRC-IRC-IRC-IRC
                          Input orientation:                          
 ---------------------------------------------------------------------
 Center     Atomic      Atomic             Coordinates (Angstroms)
 Number     Number       Type             X           Y           Z
 ---------------------------------------------------------------------
      1          6           0       -1.209793    0.629919    0.491106
      2          6           0       -0.094811    1.252726   -0.346593
      3          6           0        0.850454    0.061505   -0.429657
      4          8           0       -1.322446   -0.712982    0.010833
      5          8           0        0.012518   -1.067529   -0.556379
      6          8           0        1.630087    0.034617    0.749456
      7          1           0        2.058150   -0.835031    0.813068
      8          1           0       -0.955609    0.632247    1.558260
      9          1           0       -2.189846    1.089844    0.330073
     10          1           0        1.487072    0.035675   -1.323714
     11          1           0        0.376980    2.116126    0.127185
     12          1           0       -0.450673    1.520999   -1.345773
 ---------------------------------------------------------------------
                    Distance matrix (angstroms):
                    1          2          3          4          5
     1  C    0.000000
     2  C    1.527355   0.000000
     3  C    2.327126   1.522968   0.000000
     4  O    1.430642   2.344963   2.348480   0.000000
     5  O    2.339358   2.332190   1.411705   1.493172   0.000000
     6  O    2.913082   2.379157   1.413810   3.133994   2.352968
     7  H    3.595718   3.215398   1.951070   3.476623   2.472661
     8  H    1.097011   2.180466   2.745801   2.082965   2.880661
     9  H    1.094517   2.207618   3.298196   2.025951   3.207875
    10  H    3.304509   2.222237   1.097856   3.199203   1.995037
    11  H    2.204336   1.092022   2.180761   3.302339   3.276545
    12  H    2.178167   1.094061   2.159241   2.755184   2.745572
                    6          7          8          9         10
     6  O    0.000000
     7  H    0.971376   0.000000
     8  H    2.774374   3.433796   0.000000
     9  H    3.985132   4.688699   1.800328   0.000000
    10  H    2.078098   2.376994   3.824705   4.167255   0.000000
    11  H    2.508023   3.464982   2.454723   2.771825   2.768699
    12  H    3.305886   4.062717   3.078676   2.453381   2.441625
                   11         12
    11  H    0.000000
    12  H    1.791310   0.000000
 Symmetry turned off by external request.
 Stoichiometry    C3H6O3
 Framework group  C1[X(C3H6O3)]
 Deg. of freedom    30
 Full point group                 C1      NOp   1
 Rotational constants (GHZ):           5.8795224           3.7304845           2.9659610

 **********************************************************************

            Population analysis using the SCF Density.

 **********************************************************************

 Alpha  occ. eigenvalues --  -19.21902 -19.21415 -19.17803 -10.30811 -10.25241
 Alpha  occ. eigenvalues --  -10.21445  -1.13239  -1.04822  -0.93505  -0.80196
 Alpha  occ. eigenvalues --   -0.65224  -0.63328  -0.56567  -0.52709  -0.47905
 Alpha  occ. eigenvalues --   -0.47253  -0.43533  -0.40878  -0.40349  -0.37378
 Alpha  occ. eigenvalues --   -0.36294  -0.34558  -0.31237  -0.25377
 Alpha virt. eigenvalues --   -0.01845  -0.00100   0.01630   0.02181   0.03838
 Alpha virt. eigenvalues --    0.05109   0.06074   0.06785   0.07707   0.09274
 Alpha virt. eigenvalues --    0.10888   0.12870   0.13855   0.14604   0.17317
 Alpha virt. eigenvalues --    0.17827   0.19028   0.19803   0.20842   0.21802
 Alpha virt. eigenvalues --    0.23776   0.24677   0.26137   0.26332   0.26929
 Alpha virt. eigenvalues --    0.27529   0.29213   0.30569   0.31029   0.31225
 Alpha virt. eigenvalues --    0.32754   0.33324   0.35819   0.36807   0.37301
 Alpha virt. eigenvalues --    0.42685   0.63313   0.65149   0.65461   0.67431
 Alpha virt. eigenvalues --    0.68545   0.74365   0.77550   0.81481   0.89642
 Alpha virt. eigenvalues --    0.94907   0.95505   0.96969   1.03332   1.04407
 Alpha virt. eigenvalues --    1.05122   1.08935   1.12330   1.16324   1.19985
 Alpha virt. eigenvalues --    1.20954   1.25611   1.27816   1.30413   1.31622
 Alpha virt. eigenvalues --    1.36698   1.39852   1.48067   1.49481   1.52844
 Alpha virt. eigenvalues --    1.55943   1.61601   1.62881   1.68316   1.74206
 Alpha virt. eigenvalues --    1.77540   1.83112   1.83432   1.88526   1.93206
 Alpha virt. eigenvalues --    1.93611   2.00050   2.02666   2.05211   2.12495
 Alpha virt. eigenvalues --    2.13752   2.15557   2.24929   2.30456   2.36366
 Alpha virt. eigenvalues --    2.39138   2.46985   2.55037   2.59096   2.65976
 Alpha virt. eigenvalues --    2.70302   2.74614   2.84698   2.93672   3.01891
 Alpha virt. eigenvalues --    3.20842   4.04435   4.15674   4.27874   4.41562
 Alpha virt. eigenvalues --    4.56147   4.59403
          Condensed to atoms (all electrons):
               1          2          3          4          5          6
     1  C    5.330032   0.007472  -0.065964   0.197946  -0.035256  -0.003039
     2  C    0.007472   6.326373  -0.161499  -0.066952  -0.095167  -0.104491
     3  C   -0.065964  -0.161499   5.312203  -0.041965   0.226811   0.182714
     4  O    0.197946  -0.066952  -0.041965   8.101815   0.090669   0.023272
     5  O   -0.035256  -0.095167   0.226811   0.090669   8.100486  -0.081611
     6  O   -0.003039  -0.104491   0.182714   0.023272  -0.081611   8.534057
     7  H   -0.015472   0.034262   0.000881  -0.005351   0.002395   0.170007
     8  H    0.421020  -0.036860  -0.043595  -0.060247   0.014281  -0.000903
     9  H    0.406571  -0.076439   0.034130  -0.048568   0.005360   0.000205
    10  H    0.014111  -0.107620   0.477977   0.007962  -0.068818  -0.071746
    11  H   -0.031094   0.378832  -0.037235   0.005231   0.006696  -0.003783
    12  H   -0.037138   0.391850  -0.052180   0.004214   0.000958   0.007015
               7          8          9         10         11         12
     1  C   -0.015472   0.421020   0.406571   0.014111  -0.031094  -0.037138
     2  C    0.034262  -0.036860  -0.076439  -0.107620   0.378832   0.391850
     3  C    0.000881  -0.043595   0.034130   0.477977  -0.037235  -0.052180
     4  O   -0.005351  -0.060247  -0.048568   0.007962   0.005231   0.004214
     5  O    0.002395   0.014281   0.005360  -0.068818   0.006696   0.000958
     6  O    0.170007  -0.000903   0.000205  -0.071746  -0.003783   0.007015
     7  H    0.341243  -0.000056   0.000007  -0.003307   0.000006  -0.000248
     8  H   -0.000056   0.538156  -0.043406  -0.000020  -0.002640   0.003926
     9  H    0.000007  -0.043406   0.520688  -0.000032   0.001421  -0.006463
    10  H   -0.003307  -0.000020  -0.000032   0.561768   0.000566  -0.002304
    11  H    0.000006  -0.002640   0.001421   0.000566   0.476618  -0.026339
    12  H   -0.000248   0.003926  -0.006463  -0.002304  -0.026339   0.494644
 Mulliken charges:
               1
     1  C   -0.189188
     2  C   -0.489761
     3  C    0.167722
     4  O   -0.208027
     5  O   -0.166805
     6  O   -0.651697
     7  H    0.475633
     8  H    0.210344
     9  H    0.206526
    10  H    0.191464
    11  H    0.231722
    12  H    0.222066
 Sum of Mulliken charges =  -0.00000
 Mulliken charges with hydrogens summed into heavy atoms:
               1
     1  C    0.227683
     2  C   -0.035974
     3  C    0.359187
     4  O   -0.208027
     5  O   -0.166805
     6  O   -0.176064
 APT charges:
               1
     1  C   -0.760635
     2  C   -0.952977
     3  C   -0.222615
     4  O   -0.210726
     5  O   -0.158482
     6  O   -0.834463
     7  H    0.710255
     8  H    0.402571
     9  H    0.564333
    10  H    0.495507
    11  H    0.495816
    12  H    0.471417
 Sum of APT charges =  -0.00000
 APT charges with hydrogens summed into heavy atoms:
               1
     1  C    0.206269
     2  C    0.014255
     3  C    0.272892
     4  O   -0.210726
     5  O   -0.158482
     6  O   -0.124208
 Electronic spatial extent (au):  <R**2>=            478.9889
 Charge=              0.0000 electrons
 Dipole moment (field-independent basis, Debye):
    X=              0.8899    Y=              2.0112    Z=             -0.3633  Tot=              2.2291
 Quadrupole moment (field-independent basis, Debye-Ang):
   XX=            -34.2552   YY=            -35.8920   ZZ=            -35.9571
   XY=             -6.1964   XZ=             -2.2349   YZ=             -2.1262
 Traceless Quadrupole moment (field-independent basis, Debye-Ang):
   XX=              1.1129   YY=             -0.5239   ZZ=             -0.5890
   XY=             -6.1964   XZ=             -2.2349   YZ=             -2.1262
 Octapole moment (field-independent basis, Debye-Ang**2):
  XXX=              3.9195  YYY=             -6.9113  ZZZ=             -0.5889  XYY=              3.9766
  XXY=             -7.6810  XXZ=              0.0991  XZZ=              0.5874  YZZ=             -3.2058
  YYZ=              2.2307  XYZ=             -3.1180
 Hexadecapole moment (field-independent basis, Debye-Ang**3):
 XXXX=           -284.1478 YYYY=           -187.3172 ZZZZ=           -109.0045 XXXY=            -22.3392
 XXXZ=             -2.8178 YYYX=              2.8205 YYYZ=             -6.5721 ZZZX=             -4.1292
 ZZZY=             -9.0170 XXYY=            -75.5335 XXZZ=            -66.0501 YYZZ=            -49.6983
 XXYZ=             -8.2851 YYXZ=              2.9636 ZZXY=             -2.6321
 N-N= 2.624970648318D+02 E-N=-1.329731801781D+03  KE= 3.404479770812D+02
  Exact polarizability:   0.000   0.000   0.000   0.000   0.000   0.000
 Approx polarizability:  72.844  -1.783  63.911  -3.576   2.959  60.958

 This type of calculation cannot be archived.


 REVOLUTIONS HAVE NEVER LIGHTENED THE BURDEN OF TYRANNY:
 THEY HAVE MERELY SHIFTED IT TO OTHER SHOULDERS.
                                   -- G. B. SHAW (1903)
 Job cpu time:       0 days  6 hours 24 minutes  9.8 seconds.
 Elapsed time:       0 days  0 hours 27 minutes  7.5 seconds.
 File lengths (MBytes):  RWF=     28 Int=      0 D2E=      0 Chk=      4 Scr=      1
 Normal termination of Gaussian 16 at Wed Dec 23 22:43:51 2020.
