 Entering Gaussian System, Link 0=g16
 Initial command:
 /apps/cent7/gaussian/g16-B.01/g16-haswell/g16/l1.exe "/scratch/bell/zhao922/YARP/paper-example/KHP-network/pp_0/IRC-folder/Gau-73053.inp" -scrdir="/scratch/bell/zhao922/YARP/paper-example/KHP-network/pp_0/IRC-folder/"
 Entering Link 1 = /apps/cent7/gaussian/g16-B.01/g16-haswell/g16/l1.exe PID=     73055.
  
 Copyright (c) 1988-2017, Gaussian, Inc.  All Rights Reserved.
  
 This is part of the Gaussian(R) 16 program.  It is based on
 the Gaussian(R) 09 system (copyright 2009, Gaussian, Inc.),
 the Gaussian(R) 03 system (copyright 2003, Gaussian, Inc.),
 the Gaussian(R) 98 system (copyright 1998, Gaussian, Inc.),
 the Gaussian(R) 94 system (copyright 1995, Gaussian, Inc.),
 the Gaussian 92(TM) system (copyright 1992, Gaussian, Inc.),
 the Gaussian 90(TM) system (copyright 1990, Gaussian, Inc.),
 the Gaussian 88(TM) system (copyright 1988, Gaussian, Inc.),
 the Gaussian 86(TM) system (copyright 1986, Carnegie Mellon
 University), and the Gaussian 82(TM) system (copyright 1983,
 Carnegie Mellon University). Gaussian is a federally registered
 trademark of Gaussian, Inc.
  
 This software contains proprietary and confidential information,
 including trade secrets, belonging to Gaussian, Inc.
  
 This software is provided under written license and may be
 used, copied, transmitted, or stored only in accord with that
 written license.
  
 The following legend is applicable only to US Government
 contracts under FAR:
  
                    RESTRICTED RIGHTS LEGEND
  
 Use, reproduction and disclosure by the US Government is
 subject to restrictions as set forth in subparagraphs (a)
 and (c) of the Commercial Computer Software - Restricted
 Rights clause in FAR 52.227-19.
  
 Gaussian, Inc.
 340 Quinnipiac St., Bldg. 40, Wallingford CT 06492
  
  
 ---------------------------------------------------------------
 Warning -- This program may not be used in any manner that
 competes with the business of Gaussian, Inc. or will provide
 assistance to any competitor of Gaussian, Inc.  The licensee
 of this program is prohibited from giving any competitor of
 Gaussian, Inc. access to this program.  By using this program,
 the user acknowledges that Gaussian, Inc. is engaged in the
 business of creating and licensing software in the field of
 computational chemistry and represents and warrants to the
 licensee that it is not a competitor of Gaussian, Inc. and that
 it will not use this program in any manner prohibited above.
 ---------------------------------------------------------------
  

 Cite this work as:
 Gaussian 16, Revision B.01,
 M. J. Frisch, G. W. Trucks, H. B. Schlegel, G. E. Scuseria, 
 M. A. Robb, J. R. Cheeseman, G. Scalmani, V. Barone, 
 G. A. Petersson, H. Nakatsuji, X. Li, M. Caricato, A. V. Marenich, 
 J. Bloino, B. G. Janesko, R. Gomperts, B. Mennucci, H. P. Hratchian, 
 J. V. Ortiz, A. F. Izmaylov, J. L. Sonnenberg, D. Williams-Young, 
 F. Ding, F. Lipparini, F. Egidi, J. Goings, B. Peng, A. Petrone, 
 T. Henderson, D. Ranasinghe, V. G. Zakrzewski, J. Gao, N. Rega, 
 G. Zheng, W. Liang, M. Hada, M. Ehara, K. Toyota, R. Fukuda, 
 J. Hasegawa, M. Ishida, T. Nakajima, Y. Honda, O. Kitao, H. Nakai, 
 T. Vreven, K. Throssell, J. A. Montgomery, Jr., J. E. Peralta, 
 F. Ogliaro, M. J. Bearpark, J. J. Heyd, E. N. Brothers, K. N. Kudin, 
 V. N. Staroverov, T. A. Keith, R. Kobayashi, J. Normand, 
 K. Raghavachari, A. P. Rendell, J. C. Burant, S. S. Iyengar, 
 J. Tomasi, M. Cossi, J. M. Millam, M. Klene, C. Adamo, R. Cammi, 
 J. W. Ochterski, R. L. Martin, K. Morokuma, O. Farkas, 
 J. B. Foresman, and D. J. Fox, Gaussian, Inc., Wallingford CT, 2016.
 
 ******************************************
 Gaussian 16:  ES64L-G16RevB.01 20-Dec-2017
                23-Dec-2020 
 ******************************************
 %NProcShared=16
 Will use up to   16 processors via shared memory.
 %Mem=6GB
 ----------------------------------------------------------------------
 # B3LYP/6-31+G* IRC=(CALCALL, maxpoints=40, StepSize=15, maxcyc=100, R
 eport=Cartesians)
 ----------------------------------------------------------------------
 1/6=100,10=4,18=10,26=3,38=1,39=15,42=40,44=3,71=1,129=10,172=1/1,23;
 2/12=2,17=6,18=5,29=1,40=1/2;
 3/5=1,6=6,7=11,11=2,25=1,30=1,71=2,74=-5,140=1/1,2,3;
 4//1;
 5/5=2,38=5/2;
 8/6=4,10=90,11=11/1;
 11/6=1,8=1,9=11,15=111,16=1/1,2,10;
 10/6=1,13=1/2;
 6/7=2,8=2,9=2,10=2,18=1,28=1/1;
 7/10=1,25=1/1,2,3,16;
 1/6=100,10=4,18=10,26=3,39=15,42=40,44=3,71=1,129=10/23(2);
 2/29=1/2;
 99/5=20/99;
 2/29=1/2;
 3/5=1,6=6,7=11,11=2,25=1,30=1,71=2,74=-5,140=1/1,2,3;
 4/5=5,16=3,69=1/1;
 5/5=2,38=5/2;
 8/6=4,10=90,11=11/1;
 11/6=1,8=1,9=11,15=111,16=1/1,2,10;
 10/6=1,13=1/2;
 7/10=1,25=1/1,2,3,16;
 1/6=100,10=4,18=10,26=3,39=15,42=40,44=3,71=1,129=10/23(-8);
 2/29=1/2;
 6/7=2,8=2,9=2,10=2,18=1,19=2,28=1/1;
 99/5=20/99;
 -----------
 pp_21_1 IRC
 -----------
 Symbolic Z-matrix:
 Charge =  0 Multiplicity = 1
 C                    -0.41396  -0.98027  -0.34425 
 C                     0.85908  -0.66214   0.27599 
 C                     1.789     0.26306  -0.33349 
 O                    -1.15348   0.08755   0.39518 
 O                    -2.98577   0.58502  -0.14638 
 O                     2.86712   0.58175   0.16096 
 H                    -3.36583   0.40644   0.73367 
 H                    -0.50477  -0.80405  -1.41806 
 H                    -0.89239  -1.91222  -0.04968 
 H                     1.4902    0.66533  -1.32741 
 H                     1.0939   -1.05589   1.2601 
 H                    -1.0488    0.94196  -0.0662 
 
 IRC-IRC-IRC-IRC-IRC-IRC-IRC-IRC-IRC-IRC-IRC-IRC-IRC-IRC-IRC-IRC-IRC-IRC
 ------------------------------------------------------------------------
 INPUT DATA FOR L123
 ------------------------------------------------------------------------
 GENERAL PARAMETERS:
 Follow reaction path in both directions.
 Maximum points per path      =  40
 Step size                    =   0.150 bohr
 Integration scheme           = HPC                                 
    Redo corrector integration= Yes                                 
    DWI Weight Power          =  2
    DWI will use Hessian update vectors when possible.
    Max correction cycles     = 100
 Initial Hessian              = CalcFC
 Hessian evaluation           = Analytic at all predictor steps
                              = Update at all corrector steps
 Hessian updating method      = Bofill                              
 ------------------------------------------------------------------------
 IRC-IRC-IRC-IRC-IRC-IRC-IRC-IRC-IRC-IRC-IRC-IRC-IRC-IRC-IRC-IRC-IRC-IRC
                          Input orientation:                          
 ---------------------------------------------------------------------
 Center     Atomic      Atomic             Coordinates (Angstroms)
 Number     Number       Type             X           Y           Z
 ---------------------------------------------------------------------
      1          6           0       -0.413961   -0.980268   -0.344248
      2          6           0        0.859083   -0.662138    0.275994
      3          6           0        1.788999    0.263056   -0.333494
      4          8           0       -1.153478    0.087549    0.395182
      5          8           0       -2.985772    0.585018   -0.146380
      6          8           0        2.867120    0.581747    0.160955
      7          1           0       -3.365825    0.406441    0.733668
      8          1           0       -0.504769   -0.804047   -1.418055
      9          1           0       -0.892390   -1.912219   -0.049679
     10          1           0        1.490199    0.665328   -1.327406
     11          1           0        1.093900   -1.055887    1.260101
     12          1           0       -1.048799    0.941962   -0.066199
 ---------------------------------------------------------------------
                    Distance matrix (angstroms):
                    1          2          3          4          5
     1  C    0.000000
     2  C    1.451395   0.000000
     3  C    2.529625   1.446445   0.000000
     4  O    1.494615   2.150962   3.036436   0.000000
     5  O    3.017198   4.064075   4.789270   1.974352   0.000000
     6  O    3.668871   2.364888   1.228165   4.057623   5.860956
     7  H    3.434875   4.381914   5.266081   2.260695   0.975097
     8  H    1.091953   2.179457   2.752518   2.122168   3.114809
     9  H    1.088209   2.176332   3.464422   2.065222   3.260029
    10  H    2.701927   2.175170   1.113088   3.207829   4.629858
    11  H    2.203020   1.085654   2.182274   2.665753   4.616761
    12  H    2.043355   2.515998   2.930095   0.976653   1.971219
                    6          7          8          9         10
     6  O    0.000000
     7  H    6.261656   0.000000
     8  H    3.972824   3.778999   0.000000
     9  H    4.516431   3.479612   1.802983   0.000000
    10  H    2.029314   5.281668   2.479350   3.735380   0.000000
    11  H    2.652221   4.722783   3.129167   2.528671   3.132862
    12  H    3.939007   2.509020   2.274210   2.858511   2.848452
                   11         12
    11  H    0.000000
    12  H    3.215841   0.000000
 Symmetry turned off by external request.
 Stoichiometry    C3H6O3
 Framework group  C1[X(C3H6O3)]
 Deg. of freedom    30
 Full point group                 C1      NOp   1
 Rotational constants (GHZ):          10.4370242           1.3496967           1.2723725
 Standard basis: 6-31+G(d) (6D, 7F)
   126 basis functions,   216 primitive gaussians,   126 cartesian basis functions
    24 alpha electrons       24 beta electrons
       nuclear repulsion energy       223.1159836993 Hartrees.
 NAtoms=   12 NActive=   12 NUniq=   12 SFac= 1.00D+00 NAtFMM=   60 NAOKFM=F Big=F
 Integral buffers will be    131072 words long.
 Raffenetti 2 integral format.
 Two-electron integral symmetry is turned off.
 One-electron integrals computed using PRISM.
 NBasis=   126 RedAO= T EigKep=  9.90D-05  NBF=   126
 NBsUse=   126 1.00D-06 EigRej= -1.00D+00 NBFU=   126
 ExpMin= 4.38D-02 ExpMax= 5.48D+03 ExpMxC= 8.25D+02 IAcc=3 IRadAn=         5 AccDes= 0.00D+00
 Harris functional with IExCor=  402 and IRadAn=       5 diagonalized for initial guess.
 HarFok:  IExCor=  402 AccDes= 0.00D+00 IRadAn=         5 IDoV= 1 UseB2=F ITyADJ=14
 ICtDFT=  3500011 ScaDFX=  1.000000  1.000000  1.000000  1.000000
 FoFCou: FMM=F IPFlag=           0 FMFlag=      100000 FMFlg1=           0
         NFxFlg=           0 DoJE=T BraDBF=F KetDBF=T FulRan=T
         wScrn=  0.000000 ICntrl=       500 IOpCl=  0 I1Cent=   200000004 NGrid=           0
         NMat0=    1 NMatS0=      1 NMatT0=    0 NMatD0=    1 NMtDS0=    0 NMtDT0=    0
 Symmetry not used in FoFCou.
 Keep R1 ints in memory in canonical form, NReq=47237243.
 Requested convergence on RMS density matrix=1.00D-08 within 128 cycles.
 Requested convergence on MAX density matrix=1.00D-06.
 Requested convergence on             energy=1.00D-06.
 No special actions if energy rises.
 EnCoef did     2 forward-backward iterations
 EnCoef did     4 forward-backward iterations
 SCF Done:  E(RB3LYP) =  -343.423679114     A.U. after   17 cycles
            NFock= 17  Conv=0.25D-08     -V/T= 2.0093
 DoSCS=F DFT=T ScalE2(SS,OS)=  1.000000  1.000000
 Range of M.O.s used for correlation:     1   126
 NBasis=   126 NAE=    24 NBE=    24 NFC=     0 NFV=     0
 NROrb=    126 NOA=    24 NOB=    24 NVA=   102 NVB=   102

 **** Warning!!: The largest alpha MO coefficient is  0.30430594D+02


 **** Warning!!: The smallest alpha delta epsilon is  0.86570552D-01

 Symmetrizing basis deriv contribution to polar:
 IMax=3 JMax=2 DiffMx= 0.00D+00
 G2DrvN: will do    13 centers at a time, making    1 passes.
 Calling FoFCou, ICntrl=  3107 FMM=F I1Cent=   0 AccDes= 0.00D+00.
 End of G2Drv F.D. properties file   721 does not exist.
 End of G2Drv F.D. properties file   722 does not exist.
 End of G2Drv F.D. properties file   788 does not exist.
          IDoAtm=111111111111
          Differentiating once with respect to nuclear coordinates.
 Keep R1 ints in memory in canonical form, NReq=47193265.
          There are    39 degrees of freedom in the 1st order CPHF.  IDoFFX=6 NUNeed=     0.
     33 vectors produced by pass  0 Test12= 6.28D-15 2.56D-09 XBig12= 1.76D-01 2.23D-01.
 AX will form    33 AO Fock derivatives at one time.
     33 vectors produced by pass  1 Test12= 6.28D-15 2.56D-09 XBig12= 1.38D-01 8.39D-02.
     33 vectors produced by pass  2 Test12= 6.28D-15 2.56D-09 XBig12= 1.00D-03 5.61D-03.
     33 vectors produced by pass  3 Test12= 6.28D-15 2.56D-09 XBig12= 4.65D-06 3.66D-04.
     33 vectors produced by pass  4 Test12= 6.28D-15 2.56D-09 XBig12= 8.54D-09 1.41D-05.
     31 vectors produced by pass  5 Test12= 6.28D-15 2.56D-09 XBig12= 1.02D-11 5.21D-07.
      5 vectors produced by pass  6 Test12= 6.28D-15 2.56D-09 XBig12= 8.54D-15 1.12D-08.
 InvSVY:  IOpt=1 It=  1 EMax= 1.67D-15
 Solved reduced A of dimension   201 with    33 vectors.
 End of Minotr F.D. properties file   721 does not exist.
 End of Minotr F.D. properties file   722 does not exist.
 End of Minotr F.D. properties file   788 does not exist.

 **********************************************************************

            Population analysis using the SCF Density.

 **********************************************************************

 Alpha  occ. eigenvalues --  -19.28229 -19.17015 -19.16399 -10.29728 -10.29715
 Alpha  occ. eigenvalues --  -10.25569  -1.11192  -1.05772  -0.94285  -0.82334
 Alpha  occ. eigenvalues --   -0.70714  -0.60833  -0.57624  -0.52759  -0.50864
 Alpha  occ. eigenvalues --   -0.46275  -0.44701  -0.42872  -0.42253  -0.40861
 Alpha  occ. eigenvalues --   -0.38133  -0.29026  -0.28080  -0.25141
 Alpha virt. eigenvalues --   -0.16484  -0.01591  -0.01348   0.00396   0.00990
 Alpha virt. eigenvalues --    0.02977   0.05070   0.05736   0.06917   0.07845
 Alpha virt. eigenvalues --    0.08088   0.10243   0.10859   0.11864   0.14206
 Alpha virt. eigenvalues --    0.14726   0.16545   0.17050   0.18536   0.19927
 Alpha virt. eigenvalues --    0.20725   0.21606   0.22504   0.22913   0.24989
 Alpha virt. eigenvalues --    0.25995   0.27247   0.28170   0.29578   0.30447
 Alpha virt. eigenvalues --    0.32016   0.32797   0.34295   0.39348   0.39846
 Alpha virt. eigenvalues --    0.41299   0.60383   0.62589   0.65348   0.66894
 Alpha virt. eigenvalues --    0.75143   0.76150   0.79613   0.84643   0.86006
 Alpha virt. eigenvalues --    0.91762   0.94573   0.97796   1.01219   1.02288
 Alpha virt. eigenvalues --    1.02607   1.07305   1.10129   1.12394   1.15939
 Alpha virt. eigenvalues --    1.16705   1.20061   1.21090   1.22511   1.25161
 Alpha virt. eigenvalues --    1.26748   1.29335   1.31352   1.36526   1.40405
 Alpha virt. eigenvalues --    1.50995   1.54134   1.58368   1.60787   1.67806
 Alpha virt. eigenvalues --    1.68826   1.76205   1.78569   1.79977   1.80894
 Alpha virt. eigenvalues --    1.83233   1.85418   1.89938   1.93988   2.02061
 Alpha virt. eigenvalues --    2.04727   2.08897   2.11061   2.16590   2.27166
 Alpha virt. eigenvalues --    2.36351   2.40120   2.43201   2.46909   2.51606
 Alpha virt. eigenvalues --    2.56029   2.61104   2.75228   2.84268   2.97475
 Alpha virt. eigenvalues --    3.07701   3.89762   4.04244   4.12060   4.21522
 Alpha virt. eigenvalues --    4.38105   4.43569
          Condensed to atoms (all electrons):
               1          2          3          4          5          6
     1  C    5.666425  -0.369539   0.167352   0.036212   0.057008   0.043107
     2  C   -0.369539   6.472710   0.025286  -0.031040  -0.007013  -0.193920
     3  C    0.167352   0.025286   4.925529  -0.024578   0.004139   0.444933
     4  O    0.036212  -0.031040  -0.024578   8.423686  -0.115375  -0.004352
     5  O    0.057008  -0.007013   0.004139  -0.115375   8.576902  -0.000240
     6  O    0.043107  -0.193920   0.444933  -0.004352  -0.000240   8.162931
     7  H    0.005683  -0.004762   0.000689   0.002228   0.172740  -0.000001
     8  H    0.420063  -0.075203   0.003876  -0.053536   0.005537   0.000225
     9  H    0.408274  -0.047549   0.008426  -0.046873   0.002667  -0.000213
    10  H    0.081626  -0.241549   0.426697  -0.001590  -0.000064  -0.051746
    11  H   -0.017196   0.328387  -0.003675   0.004158  -0.000033  -0.003246
    12  H    0.000115  -0.017579   0.016693   0.194652   0.019612  -0.000343
               7          8          9         10         11         12
     1  C    0.005683   0.420063   0.408274   0.081626  -0.017196   0.000115
     2  C   -0.004762  -0.075203  -0.047549  -0.241549   0.328387  -0.017579
     3  C    0.000689   0.003876   0.008426   0.426697  -0.003675   0.016693
     4  O    0.002228  -0.053536  -0.046873  -0.001590   0.004158   0.194652
     5  O    0.172740   0.005537   0.002667  -0.000064  -0.000033   0.019612
     6  O   -0.000001   0.000225  -0.000213  -0.051746  -0.003246  -0.000343
     7  H    0.384115  -0.000104   0.000147  -0.000001   0.000006  -0.000871
     8  H   -0.000104   0.487097  -0.024580   0.002929   0.002681  -0.003971
     9  H    0.000147  -0.024580   0.467216  -0.000137  -0.003230   0.003781
    10  H   -0.000001   0.002929  -0.000137   0.622327   0.003092   0.000471
    11  H    0.000006   0.002681  -0.003230   0.003092   0.455595  -0.000056
    12  H   -0.000871  -0.003971   0.003781   0.000471  -0.000056   0.256803
 Mulliken charges:
               1
     1  C   -0.499130
     2  C    0.161769
     3  C    0.004633
     4  O   -0.383593
     5  O   -0.715881
     6  O   -0.397135
     7  H    0.440130
     8  H    0.234986
     9  H    0.232070
    10  H    0.157943
    11  H    0.233518
    12  H    0.530691
 Sum of Mulliken charges =  -0.00000
 Mulliken charges with hydrogens summed into heavy atoms:
               1
     1  C   -0.032075
     2  C    0.395287
     3  C    0.162576
     4  O    0.147098
     5  O   -0.275751
     6  O   -0.397135
 APT charges:
               1
     1  C   -1.081746
     2  C   -0.099929
     3  C   -0.526371
     4  O   -0.282881
     5  O   -1.053518
     6  O   -0.055539
     7  H    0.677377
     8  H    0.431873
     9  H    0.561119
    10  H    0.334077
    11  H    0.512893
    12  H    0.582645
 Sum of APT charges =  -0.00000
 APT charges with hydrogens summed into heavy atoms:
               1
     1  C   -0.088754
     2  C    0.412964
     3  C   -0.192294
     4  O    0.299764
     5  O   -0.376141
     6  O   -0.055539
 Electronic spatial extent (au):  <R**2>=            877.7990
 Charge=             -0.0000 electrons
 Dipole moment (field-independent basis, Debye):
    X=             -1.0153    Y=             -2.1070    Z=             -0.1582  Tot=              2.3442
 Quadrupole moment (field-independent basis, Debye-Ang):
   XX=            -55.5615   YY=            -34.5364   ZZ=            -34.4296
   XY=             -0.1672   XZ=             -6.2912   YZ=             -0.6643
 Traceless Quadrupole moment (field-independent basis, Debye-Ang):
   XX=            -14.0523   YY=              6.9728   ZZ=              7.0796
   XY=             -0.1672   XZ=             -6.2912   YZ=             -0.6643
 Octapole moment (field-independent basis, Debye-Ang**2):
  XXX=            -31.3708  YYY=             -0.5381  ZZZ=              1.1463  XYY=             -3.3075
  XXY=            -15.5189  XXZ=             15.9115  XZZ=             -3.3040  YZZ=             -0.1317
  YYZ=              1.5030  XYZ=             -3.7352
 Hexadecapole moment (field-independent basis, Debye-Ang**3):
 XXXX=          -1028.4424 YYYY=           -129.1734 ZZZZ=            -73.2657 XXXY=            -10.2352
 XXXZ=            -82.4513 YYYX=              8.3518 YYYZ=             -1.1054 ZZZX=             -3.9542
 ZZZY=             -1.2731 XXYY=           -184.0668 XXZZ=           -149.0001 YYZZ=            -33.3179
 XXYZ=              4.7072 YYXZ=             -0.9764 ZZXY=             -1.2358
 N-N= 2.231159836993D+02 E-N=-1.250331038725D+03  KE= 3.402537295902D+02
  Exact polarizability:   0.000   0.000   0.000   0.000   0.000   0.000
 Approx polarizability: 654.292-102.529  87.295  40.993  -9.976  64.498
 Calling FoFJK, ICntrl=    100127 FMM=F ISym2X=0 I1Cent= 0 IOpClX= 0 NMat=1 NMatS=1 NMatT=0.
 -------------------------------------------------------------------
 Center     Atomic                   Forces (Hartrees/Bohr)
 Number     Number              X              Y              Z
 -------------------------------------------------------------------
      1        6           0.000000271   -0.000000268    0.000001263
      2        6           0.000000688    0.000000301    0.000000030
      3        6          -0.000000502    0.000000717   -0.000000316
      4        8          -0.000000484   -0.000000846    0.000000261
      5        8          -0.000000118   -0.000000926   -0.000001245
      6        8          -0.000000250    0.000001292   -0.000000055
      7        1          -0.000000440   -0.000001235    0.000000364
      8        1           0.000000542   -0.000000343   -0.000000287
      9        1           0.000000950   -0.000000471    0.000000523
     10        1          -0.000000032    0.000000067    0.000000078
     11        1           0.000000259    0.000000962    0.000000385
     12        1          -0.000000884    0.000000749   -0.000001001
 -------------------------------------------------------------------
 Cartesian Forces:  Max     0.000001292 RMS     0.000000658
 IRC-IRC-IRC-IRC-IRC-IRC-IRC-IRC-IRC-IRC-IRC-IRC-IRC-IRC-IRC-IRC-IRC-IRC
          ******** Start new reaction path calculation ********
 Supplied step size of   0.1500 bohr.
    Integration on MW PES will use step size of   0.2517 sqrt(amu)*bohr.
 Point Number:   0          Path Number:   1
 Calculating another point on the path.
 IRC-IRC-IRC-IRC-IRC-IRC-IRC-IRC-IRC-IRC-IRC-IRC-IRC-IRC-IRC-IRC-IRC-IRC
                          Input orientation:                          
 ---------------------------------------------------------------------
 Center     Atomic      Atomic             Coordinates (Angstroms)
 Number     Number       Type             X           Y           Z
 ---------------------------------------------------------------------
      1          6           0       -0.444640   -0.997980   -0.353889
      2          6           0        0.824590   -0.682827    0.268128
      3          6           0        1.755799    0.238840   -0.342528
      4          8           0       -1.208527    0.076092    0.373967
      5          8           0       -3.014296    0.561244   -0.147854
      6          8           0        2.832681    0.563591    0.151522
      7          1           0       -3.394167    0.358427    0.727632
      8          1           0       -0.533377   -0.823629   -1.428191
      9          1           0       -0.929933   -1.925201   -0.056017
     10          1           0        1.458719    0.635324   -1.339959
     11          1           0        1.056883   -1.074871    1.253486
     12          1           0       -1.025569    0.939609   -0.050717
 ---------------------------------------------------------------------
                    Distance matrix (angstroms):
                    1          2          3          4          5
     1  C    0.000000
     2  C    1.448161   0.000000
     3  C    2.524239   1.445517   0.000000
     4  O    1.505632   2.172723   3.054027   0.000000
     5  O    3.012767   4.056822   4.784940   1.941255   0.000000
     6  O    3.665347   2.366343   1.228504   4.076579   5.854636
     7  H    3.421876   4.369584   5.261339   2.231998   0.975660
     8  H    1.091969   2.177475   2.747331   2.124405   3.116424
     9  H    1.088107   2.174148   3.460971   2.065835   3.245830
    10  H    2.694956   2.173841   1.113699   3.219391   4.629737
    11  H    2.200940   1.085628   2.182105   2.688931   4.605988
    12  H    2.045395   2.481340   2.883095   0.979536   2.026729
                    6          7          8          9         10
     6  O    0.000000
     7  H    6.256806   0.000000
     8  H    3.968654   3.772128   0.000000
     9  H    4.516018   3.449856   1.803768   0.000000
    10  H    2.029146   5.282244   2.470784   3.729672   0.000000
    11  H    2.655624   4.705604   3.127849   2.526915   3.132443
    12  H    3.881801   2.560050   2.291003   2.866410   2.815390
                   11         12
    11  H    0.000000
    12  H    3.177370   0.000000
 Symmetry turned off by external request.
 Stoichiometry    C3H6O3
 Framework group  C1[X(C3H6O3)]
 Deg. of freedom    30
 Full point group                 C1      NOp   1
 Rotational constants (GHZ):          10.4943718           1.3500366           1.2725045
 Standard basis: 6-31+G(d) (6D, 7F)
   126 basis functions,   216 primitive gaussians,   126 cartesian basis functions
    24 alpha electrons       24 beta electrons
       nuclear repulsion energy       223.1639427414 Hartrees.
 NAtoms=   12 NActive=   12 NUniq=   12 SFac= 1.00D+00 NAtFMM=   60 NAOKFM=F Big=F
 Integral buffers will be    131072 words long.
 Raffenetti 2 integral format.
 Two-electron integral symmetry is turned off.
 One-electron integrals computed using PRISM.
 NBasis=   126 RedAO= T EigKep=  9.89D-05  NBF=   126
 NBsUse=   126 1.00D-06 EigRej= -1.00D+00 NBFU=   126
 Initial guess from the checkpoint file:  "/scratch/bell/zhao922/YARP/paper-example/KHP-network/pp_0/IRC-folder/Gau-73055.chk"
 B after Tr=    -0.065907   -0.036799   -0.017418
         Rot=    1.000000   -0.000177   -0.000033    0.000003 Ang=  -0.02 deg.
 ExpMin= 4.38D-02 ExpMax= 5.48D+03 ExpMxC= 8.25D+02 IAcc=3 IRadAn=         5 AccDes= 0.00D+00
 Harris functional with IExCor=  402 and IRadAn=       5 diagonalized for initial guess.
 HarFok:  IExCor=  402 AccDes= 0.00D+00 IRadAn=         5 IDoV= 1 UseB2=F ITyADJ=14
 ICtDFT=  3500011 ScaDFX=  1.000000  1.000000  1.000000  1.000000
 FoFCou: FMM=F IPFlag=           0 FMFlag=      100000 FMFlg1=           0
         NFxFlg=           0 DoJE=T BraDBF=F KetDBF=T FulRan=T
         wScrn=  0.000000 ICntrl=       500 IOpCl=  0 I1Cent=   200000004 NGrid=           0
         NMat0=    1 NMatS0=      1 NMatT0=    0 NMatD0=    1 NMtDS0=    0 NMtDT0=    0
 Symmetry not used in FoFCou.
 Keep R1 ints in memory in canonical form, NReq=47237243.
 Requested convergence on RMS density matrix=1.00D-08 within 128 cycles.
 Requested convergence on MAX density matrix=1.00D-06.
 Requested convergence on             energy=1.00D-06.
 No special actions if energy rises.
 SCF Done:  E(RB3LYP) =  -343.423705937     A.U. after   13 cycles
            NFock= 13  Conv=0.56D-08     -V/T= 2.0093
 DoSCS=F DFT=T ScalE2(SS,OS)=  1.000000  1.000000
 Range of M.O.s used for correlation:     1   126
 NBasis=   126 NAE=    24 NBE=    24 NFC=     0 NFV=     0
 NROrb=    126 NOA=    24 NOB=    24 NVA=   102 NVB=   102

 **** Warning!!: The largest alpha MO coefficient is  0.30398718D+02


 **** Warning!!: The smallest alpha delta epsilon is  0.88145698D-01

 Symmetrizing basis deriv contribution to polar:
 IMax=3 JMax=2 DiffMx= 0.00D+00
 G2DrvN: will do    13 centers at a time, making    1 passes.
 Calling FoFCou, ICntrl=  3107 FMM=F I1Cent=   0 AccDes= 0.00D+00.
 End of G2Drv F.D. properties file   721 does not exist.
 End of G2Drv F.D. properties file   722 does not exist.
 End of G2Drv F.D. properties file   788 does not exist.
          IDoAtm=111111111111
          Differentiating once with respect to nuclear coordinates.
 Keep R1 ints in memory in canonical form, NReq=47193265.
          There are    39 degrees of freedom in the 1st order CPHF.  IDoFFX=6 NUNeed=     0.
     33 vectors produced by pass  0 Test12= 6.28D-15 2.56D-09 XBig12= 1.77D-01 2.19D-01.
 AX will form    33 AO Fock derivatives at one time.
     33 vectors produced by pass  1 Test12= 6.28D-15 2.56D-09 XBig12= 1.32D-01 8.14D-02.
     33 vectors produced by pass  2 Test12= 6.28D-15 2.56D-09 XBig12= 1.02D-03 6.28D-03.
     33 vectors produced by pass  3 Test12= 6.28D-15 2.56D-09 XBig12= 4.88D-06 3.99D-04.
     33 vectors produced by pass  4 Test12= 6.28D-15 2.56D-09 XBig12= 8.59D-09 1.16D-05.
     31 vectors produced by pass  5 Test12= 6.28D-15 2.56D-09 XBig12= 1.02D-11 5.05D-07.
      5 vectors produced by pass  6 Test12= 6.28D-15 2.56D-09 XBig12= 8.45D-15 1.11D-08.
 InvSVY:  IOpt=1 It=  1 EMax= 1.33D-15
 Solved reduced A of dimension   201 with    33 vectors.
 End of Minotr F.D. properties file   721 does not exist.
 End of Minotr F.D. properties file   722 does not exist.
 End of Minotr F.D. properties file   788 does not exist.
 Calling FoFJK, ICntrl=    100127 FMM=F ISym2X=0 I1Cent= 0 IOpClX= 0 NMat=1 NMatS=1 NMatT=0.
 -------------------------------------------------------------------
 Center     Atomic                   Forces (Hartrees/Bohr)
 Number     Number              X              Y              Z
 -------------------------------------------------------------------
      1        6           0.000313229   -0.000370354   -0.000026653
      2        6          -0.000132076   -0.000078353    0.000056416
      3        6           0.000186970   -0.000133976   -0.000008155
      4        8          -0.000079693    0.003327008   -0.001966649
      5        8           0.000335500   -0.000218729    0.000580345
      6        8           0.000006653    0.000040026   -0.000016993
      7        1           0.000178740   -0.000009058   -0.000236636
      8        1           0.000023568    0.000029244    0.000017533
      9        1           0.000038558   -0.000014119   -0.000020292
     10        1           0.000017629   -0.000044066    0.000008921
     11        1          -0.000005559    0.000007459    0.000014372
     12        1          -0.000883519   -0.002535081    0.001597790
 -------------------------------------------------------------------
 Cartesian Forces:  Max     0.003327008 RMS     0.000843481
 IRC-IRC-IRC-IRC-IRC-IRC-IRC-IRC-IRC-IRC-IRC-IRC-IRC-IRC-IRC-IRC-IRC-IRC
 Pt  1 Step number   1 out of a maximum of 100
 Modified Bulirsch-Stoer Extrapolation Cycles:
    EPS =    0.000010000000000
      PEZero:  N= 2 I= 1 D=  6.55D-04 Err=  2.63D-02
      PEZero:  N= 3 I= 2 D=  6.55D-04 Err=  3.89D-02
      PEZero:  N= 3 I= 1 D=  1.31D-03 Err=  3.20D-02
      PEZero:  N= 4 I= 3 D=  3.28D-04 Err=  5.44D-02
      PEZero:  N= 4 I= 2 D=  9.83D-04 Err=  3.36D-02
      PEZero:  N= 4 I= 1 D=  1.64D-03 Err=  2.11D-02
      PEZero:  N= 5 I= 4 D=  3.28D-04 Err=  1.02D-02
      PEZero:  N= 5 I= 3 D=  6.55D-04 Err=  3.91D-02
      PEZero:  N= 6 I= 5 D=  1.64D-04 Err=  3.09D-04
      PEZero:  N= 6 I= 4 D=  4.92D-04 Err=  9.79D-03
      PEZero:  N= 7 I= 6 D=  1.64D-04 Err=  2.02D-04
      PEZero:  N= 7 I= 5 D=  3.28D-04 Err=  5.86D-06
      PEZero:  N= 7 I= 4 D=  6.55D-04 Err=  1.68D-02
 Maximum DWI energy   std dev =  0.000005002 at pt     1
 Maximum DWI gradient std dev =  0.964576293 at pt    39
 CORRECTOR INTEGRATION CONVERGENCE:
   Recorrection delta-x convergence threshold:    0.010000
   Delta-x Convergence NOT Met
 IRC-IRC-IRC-IRC-IRC-IRC-IRC-IRC-IRC-IRC-IRC-IRC-IRC-IRC-IRC-IRC-IRC-IRC
                          Input orientation:                          
 ---------------------------------------------------------------------
 Center     Atomic      Atomic             Coordinates (Angstroms)
 Number     Number       Type             X           Y           Z
 ---------------------------------------------------------------------
      1          6           0       -0.444084   -0.998323   -0.354285
      2          6           0        0.824311   -0.682496    0.268399
      3          6           0        1.756036    0.238658   -0.342583
      4          8           0       -1.209057    0.075975    0.373808
      5          8           0       -3.013881    0.561617   -0.147640
      6          8           0        2.832718    0.563601    0.151588
      7          1           0       -3.393295    0.358474    0.727599
      8          1           0       -0.532394   -0.823098   -1.428441
      9          1           0       -0.929428   -1.925660   -0.056982
     10          1           0        1.459268    0.634448   -1.340313
     11          1           0        1.056332   -1.074236    1.253949
     12          1           0       -1.032813    0.937818   -0.049376
 ---------------------------------------------------------------------
                    Distance matrix (angstroms):
                    1          2          3          4          5
     1  C    0.000000
     2  C    1.447864   0.000000
     3  C    2.524042   1.445661   0.000000
     4  O    1.506459   2.172780   3.054743   0.000000
     5  O    3.013299   4.056183   4.784810   1.940398   0.000000
     6  O    3.665098   2.366453   1.228429   4.077144   5.854251
     7  H    3.421873   4.368373   5.260728   2.230666   0.975329
     8  H    1.091931   2.177082   2.746511   2.124690   3.116996
     9  H    1.088072   2.174151   3.460861   2.066474   3.246491
    10  H    2.694613   2.173814   1.113636   3.220258   4.629993
    11  H    2.200779   1.085635   2.182245   2.688795   4.605117
    12  H    2.046512   2.485017   2.890064   0.976176   2.018864
                    6          7          8          9         10
     6  O    0.000000
     7  H    6.255966   0.000000
     8  H    3.967796   3.772185   0.000000
     9  H    4.515935   3.450141   1.803934   0.000000
    10  H    2.029077   5.282025   2.469600   3.729203   0.000000
    11  H    2.655797   4.704135   3.127673   2.527194   3.132435
    12  H    3.888799   2.551707   2.291956   2.865353   2.822945
                   11         12
    11  H    0.000000
    12  H    3.179865   0.000000
 Symmetry turned off by external request.
 Stoichiometry    C3H6O3
 Framework group  C1[X(C3H6O3)]
 Deg. of freedom    30
 Full point group                 C1      NOp   1
 Rotational constants (GHZ):          10.4923378           1.3500554           1.2725239
 Standard basis: 6-31+G(d) (6D, 7F)
   126 basis functions,   216 primitive gaussians,   126 cartesian basis functions
    24 alpha electrons       24 beta electrons
       nuclear repulsion energy       223.1807571282 Hartrees.
 NAtoms=   12 NActive=   12 NUniq=   12 SFac= 1.00D+00 NAtFMM=   60 NAOKFM=F Big=F
 Integral buffers will be    131072 words long.
 Raffenetti 2 integral format.
 Two-electron integral symmetry is turned off.
 One-electron integrals computed using PRISM.
 NBasis=   126 RedAO= T EigKep=  9.89D-05  NBF=   126
 NBsUse=   126 1.00D-06 EigRej= -1.00D+00 NBFU=   126
 Initial guess from the checkpoint file:  "/scratch/bell/zhao922/YARP/paper-example/KHP-network/pp_0/IRC-folder/Gau-73055.chk"
 B after Tr=    -0.000096   -0.000038    0.000009
         Rot=    1.000000   -0.000045    0.000014   -0.000004 Ang=  -0.01 deg.
 ExpMin= 4.38D-02 ExpMax= 5.48D+03 ExpMxC= 8.25D+02 IAcc=3 IRadAn=         5 AccDes= 0.00D+00
 Harris functional with IExCor=  402 and IRadAn=       5 diagonalized for initial guess.
 HarFok:  IExCor=  402 AccDes= 0.00D+00 IRadAn=         5 IDoV= 1 UseB2=F ITyADJ=14
 ICtDFT=  3500011 ScaDFX=  1.000000  1.000000  1.000000  1.000000
 FoFCou: FMM=F IPFlag=           0 FMFlag=      100000 FMFlg1=           0
         NFxFlg=           0 DoJE=T BraDBF=F KetDBF=T FulRan=T
         wScrn=  0.000000 ICntrl=       500 IOpCl=  0 I1Cent=   200000004 NGrid=           0
         NMat0=    1 NMatS0=      1 NMatT0=    0 NMatD0=    1 NMtDS0=    0 NMtDT0=    0
 Symmetry not used in FoFCou.
 Keep R1 ints in memory in canonical form, NReq=47237243.
 Requested convergence on RMS density matrix=1.00D-08 within 128 cycles.
 Requested convergence on MAX density matrix=1.00D-06.
 Requested convergence on             energy=1.00D-06.
 No special actions if energy rises.
 EnCoef did     5 forward-backward iterations
 SCF Done:  E(RB3LYP) =  -343.423719386     A.U. after   11 cycles
            NFock= 11  Conv=0.71D-08     -V/T= 2.0093
 DoSCS=F DFT=T ScalE2(SS,OS)=  1.000000  1.000000
 Range of M.O.s used for correlation:     1   126
 NBasis=   126 NAE=    24 NBE=    24 NFC=     0 NFV=     0
 NROrb=    126 NOA=    24 NOB=    24 NVA=   102 NVB=   102

 **** Warning!!: The largest alpha MO coefficient is  0.30435152D+02


 **** Warning!!: The smallest alpha delta epsilon is  0.88235592D-01

 Symmetrizing basis deriv contribution to polar:
 IMax=3 JMax=2 DiffMx= 0.00D+00
 Calling FoFJK, ICntrl=      2127 FMM=F ISym2X=0 I1Cent= 0 IOpClX= 0 NMat=1 NMatS=1 NMatT=0.
 -------------------------------------------------------------------
 Center     Atomic                   Forces (Hartrees/Bohr)
 Number     Number              X              Y              Z
 -------------------------------------------------------------------
      1        6           0.000168785    0.000013426   -0.000033649
      2        6           0.000006666    0.000005930    0.000072298
      3        6           0.000091972   -0.000147273    0.000005841
      4        8          -0.000668537    0.000252065   -0.000440175
      5        8           0.000235973   -0.000126869    0.000332199
      6        8           0.000053154    0.000038389    0.000016392
      7        1           0.000019781   -0.000061901    0.000009593
      8        1           0.000023023   -0.000000200   -0.000003282
      9        1          -0.000000323    0.000010541    0.000001564
     10        1           0.000015119   -0.000031880   -0.000010352
     11        1          -0.000008332    0.000008759    0.000011365
     12        1           0.000062719    0.000039014    0.000038205
 -------------------------------------------------------------------
 Cartesian Forces:  Max     0.000668537 RMS     0.000164125
 IRC-IRC-IRC-IRC-IRC-IRC-IRC-IRC-IRC-IRC-IRC-IRC-IRC-IRC-IRC-IRC-IRC-IRC
 Error in corrector energy =          -0.0000000137
 Magnitude of corrector gradient =     0.0010062725
 Magnitude of analytic gradient =      0.0009847528
 Magnitude of difference =             0.0000309759
 Angle between gradients (degrees)=    1.2824
 Pt  1 Step number   2 out of a maximum of 100
 Modified Bulirsch-Stoer Extrapolation Cycles:
    EPS =    0.000010000000000
      PEZero:  N= 2 I= 1 D=  6.55D-04 Err=  2.17D-02
      PEZero:  N= 3 I= 2 D=  6.55D-04 Err=  2.95D-02
      PEZero:  N= 3 I= 1 D=  1.31D-03 Err=  2.25D-02
      PEZero:  N= 4 I= 3 D=  3.28D-04 Err=  4.67D-02
      PEZero:  N= 4 I= 2 D=  9.83D-04 Err=  3.28D-02
      PEZero:  N= 4 I= 1 D=  1.64D-03 Err=  2.59D-02
      PEZero:  N= 5 I= 4 D=  3.28D-04 Err=  3.41D-02
      PEZero:  N= 5 I= 3 D=  6.55D-04 Err=  4.43D-03
      PEZero:  N= 5 I= 2 D=  1.31D-03 Err=  1.20D-02
      PEZero:  N= 6 I= 5 D=  1.64D-04 Err=  4.94D-04
      PEZero:  N= 6 I= 4 D=  4.92D-04 Err=  3.34D-02
      PEZero:  N= 7 I= 6 D=  1.64D-04 Err=  2.56D-04
      PEZero:  N= 7 I= 5 D=  3.28D-04 Err=  1.09D-04
      PEZero:  N= 7 I= 4 D=  6.55D-04 Err=  2.33D-03
      PEZero:  N= 8 I= 7 D=  8.19D-05 Err=  1.88D-04
      PEZero:  N= 8 I= 6 D=  2.46D-04 Err=  5.31D-06
      PEZero:  N= 8 I= 5 D=  4.10D-04 Err=  5.90D-05
 Maximum DWI energy   std dev =  0.000001199 at pt    14
 Maximum DWI gradient std dev =  1.667670356 at pt    21
 CORRECTOR INTEGRATION CONVERGENCE:
   Recorrection delta-x convergence threshold:    0.010000
   Delta-x Convergence NOT Met
 IRC-IRC-IRC-IRC-IRC-IRC-IRC-IRC-IRC-IRC-IRC-IRC-IRC-IRC-IRC-IRC-IRC-IRC
                          Input orientation:                          
 ---------------------------------------------------------------------
 Center     Atomic      Atomic             Coordinates (Angstroms)
 Number     Number       Type             X           Y           Z
 ---------------------------------------------------------------------
      1          6           0       -0.443927   -0.998455   -0.354404
      2          6           0        0.824176   -0.682056    0.268619
      3          6           0        1.756295    0.238505   -0.342697
      4          8           0       -1.208861    0.076081    0.373240
      5          8           0       -3.014533    0.561506   -0.147154
      6          8           0        2.832835    0.563568    0.151682
      7          1           0       -3.393113    0.358887    0.728552
      8          1           0       -0.531802   -0.823673   -1.428667
      9          1           0       -0.929213   -1.925776   -0.056941
     10          1           0        1.460000    0.633593   -1.340838
     11          1           0        1.055740   -1.073064    1.254572
     12          1           0       -1.035191    0.937432   -0.051731
 ---------------------------------------------------------------------
                    Distance matrix (angstroms):
                    1          2          3          4          5
     1  C    0.000000
     2  C    1.447878   0.000000
     3  C    2.524120   1.445678   0.000000
     4  O    1.506392   2.172316   3.054684   0.000000
     5  O    3.014042   4.056476   4.785746   1.940850   0.000000
     6  O    3.665134   2.366424   1.228419   4.077013   5.854999
     7  H    3.422407   4.368138   5.261032   2.230960   0.975314
     8  H    1.091930   2.177042   2.746441   2.124813   3.118485
     9  H    1.088077   2.174213   3.460884   2.066565   3.247040
    10  H    2.694730   2.173835   1.113629   3.220512   4.631578
    11  H    2.200766   1.085639   2.182260   2.688066   4.604756
    12  H    2.046671   2.486486   2.892326   0.976057   2.016983
                    6          7          8          9         10
     6  O    0.000000
     7  H    6.255965   0.000000
     8  H    3.967709   3.773478   0.000000
     9  H    4.515901   3.450722   1.803940   0.000000
    10  H    2.029087   5.283043   2.469537   3.729222   0.000000
    11  H    2.655748   4.703134   3.127660   2.527295   3.132452
    12  H    3.891371   2.550167   2.291472   2.865173   2.824906
                   11         12
    11  H    0.000000
    12  H    3.181275   0.000000
 Symmetry turned off by external request.
 Stoichiometry    C3H6O3
 Framework group  C1[X(C3H6O3)]
 Deg. of freedom    30
 Full point group                 C1      NOp   1
 Rotational constants (GHZ):          10.4944631           1.3497838           1.2723105
 Standard basis: 6-31+G(d) (6D, 7F)
   126 basis functions,   216 primitive gaussians,   126 cartesian basis functions
    24 alpha electrons       24 beta electrons
       nuclear repulsion energy       223.1743822845 Hartrees.
 NAtoms=   12 NActive=   12 NUniq=   12 SFac= 1.00D+00 NAtFMM=   60 NAOKFM=F Big=F
 Integral buffers will be    131072 words long.
 Raffenetti 2 integral format.
 Two-electron integral symmetry is turned off.
 One-electron integrals computed using PRISM.
 NBasis=   126 RedAO= T EigKep=  9.89D-05  NBF=   126
 NBsUse=   126 1.00D-06 EigRej= -1.00D+00 NBFU=   126
 Initial guess from the checkpoint file:  "/scratch/bell/zhao922/YARP/paper-example/KHP-network/pp_0/IRC-folder/Gau-73055.chk"
 B after Tr=    -0.000090    0.000016   -0.000067
         Rot=    1.000000    0.000104   -0.000007   -0.000013 Ang=   0.01 deg.
 ExpMin= 4.38D-02 ExpMax= 5.48D+03 ExpMxC= 8.25D+02 IAcc=3 IRadAn=         5 AccDes= 0.00D+00
 Harris functional with IExCor=  402 and IRadAn=       5 diagonalized for initial guess.
 HarFok:  IExCor=  402 AccDes= 0.00D+00 IRadAn=         5 IDoV= 1 UseB2=F ITyADJ=14
 ICtDFT=  3500011 ScaDFX=  1.000000  1.000000  1.000000  1.000000
 FoFCou: FMM=F IPFlag=           0 FMFlag=      100000 FMFlg1=           0
         NFxFlg=           0 DoJE=T BraDBF=F KetDBF=T FulRan=T
         wScrn=  0.000000 ICntrl=       500 IOpCl=  0 I1Cent=   200000004 NGrid=           0
         NMat0=    1 NMatS0=      1 NMatT0=    0 NMatD0=    1 NMtDS0=    0 NMtDT0=    0
 Symmetry not used in FoFCou.
 Keep R1 ints in memory in canonical form, NReq=47237243.
 Requested convergence on RMS density matrix=1.00D-08 within 128 cycles.
 Requested convergence on MAX density matrix=1.00D-06.
 Requested convergence on             energy=1.00D-06.
 No special actions if energy rises.
 SCF Done:  E(RB3LYP) =  -343.423719413     A.U. after   10 cycles
            NFock= 10  Conv=0.63D-08     -V/T= 2.0093
 DoSCS=F DFT=T ScalE2(SS,OS)=  1.000000  1.000000
 Range of M.O.s used for correlation:     1   126
 NBasis=   126 NAE=    24 NBE=    24 NFC=     0 NFV=     0
 NROrb=    126 NOA=    24 NOB=    24 NVA=   102 NVB=   102

 **** Warning!!: The largest alpha MO coefficient is  0.30456552D+02


 **** Warning!!: The smallest alpha delta epsilon is  0.88234694D-01

 Symmetrizing basis deriv contribution to polar:
 IMax=3 JMax=2 DiffMx= 0.00D+00
 Calling FoFJK, ICntrl=      2127 FMM=F ISym2X=0 I1Cent= 0 IOpClX= 0 NMat=1 NMatS=1 NMatT=0.
 -------------------------------------------------------------------
 Center     Atomic                   Forces (Hartrees/Bohr)
 Number     Number              X              Y              Z
 -------------------------------------------------------------------
      1        6           0.000157707    0.000022533   -0.000025809
      2        6           0.000014319    0.000005192    0.000061746
      3        6           0.000086611   -0.000135227    0.000003802
      4        8          -0.000677191    0.000129210   -0.000368535
      5        8           0.000201716   -0.000124532    0.000308243
      6        8           0.000050208    0.000036674    0.000016135
      7        1           0.000014452   -0.000060479    0.000013725
      8        1           0.000019455   -0.000001895   -0.000001741
      9        1          -0.000002409    0.000013934    0.000003987
     10        1           0.000015661   -0.000031138   -0.000006166
     11        1          -0.000007546    0.000009674    0.000008078
     12        1           0.000127017    0.000136054   -0.000013465
 -------------------------------------------------------------------
 Cartesian Forces:  Max     0.000677191 RMS     0.000154855
 IRC-IRC-IRC-IRC-IRC-IRC-IRC-IRC-IRC-IRC-IRC-IRC-IRC-IRC-IRC-IRC-IRC-IRC
 Error in corrector energy =          -0.0000000407
 Magnitude of corrector gradient =     0.0009362292
 Magnitude of analytic gradient =      0.0009291289
 Magnitude of difference =             0.0001827178
 Angle between gradients (degrees)=   11.2342
 Pt  1 Step number   3 out of a maximum of 100
 Modified Bulirsch-Stoer Extrapolation Cycles:
    EPS =    0.000010000000000
      PEZero:  N= 2 I= 1 D=  6.55D-04 Err=  2.17D-02
      PEZero:  N= 3 I= 2 D=  6.55D-04 Err=  3.03D-02
      PEZero:  N= 3 I= 1 D=  1.31D-03 Err=  2.38D-02
      PEZero:  N= 4 I= 3 D=  3.28D-04 Err=  4.74D-02
      PEZero:  N= 4 I= 2 D=  9.83D-04 Err=  3.29D-02
      PEZero:  N= 4 I= 1 D=  1.64D-03 Err=  2.52D-02
      PEZero:  N= 5 I= 4 D=  3.28D-04 Err=  3.42D-02
      PEZero:  N= 5 I= 3 D=  6.55D-04 Err=  3.95D-03
      PEZero:  N= 5 I= 2 D=  1.31D-03 Err=  1.25D-02
      PEZero:  N= 6 I= 5 D=  1.64D-04 Err=  5.09D-04
      PEZero:  N= 6 I= 4 D=  4.92D-04 Err=  3.36D-02
      PEZero:  N= 7 I= 6 D=  1.64D-04 Err=  2.57D-04
      PEZero:  N= 7 I= 5 D=  3.28D-04 Err=  1.22D-04
      PEZero:  N= 7 I= 4 D=  6.55D-04 Err=  2.10D-03
      PEZero:  N= 8 I= 7 D=  8.19D-05 Err=  1.90D-04
      PEZero:  N= 8 I= 6 D=  2.46D-04 Err=  4.26D-06
      PEZero:  N= 8 I= 5 D=  4.10D-04 Err=  6.83D-05
 Maximum DWI energy   std dev =  0.000001247 at pt     1
 Maximum DWI gradient std dev =  1.638849775 at pt    19
 CORRECTOR INTEGRATION CONVERGENCE:
   Recorrection delta-x convergence threshold:    0.010000
   Delta-x Convergence Met
 Point Number:   1          Path Number:   1
   CHANGE IN THE REACTION COORDINATE =    0.24940
   NET REACTION COORDINATE UP TO THIS POINT =    0.24940
  # OF POINTS ALONG THE PATH =   1
  # OF STEPS =   3

 Calculating another point on the path.
 IRC-IRC-IRC-IRC-IRC-IRC-IRC-IRC-IRC-IRC-IRC-IRC-IRC-IRC-IRC-IRC-IRC-IRC
                          Input orientation:                          
 ---------------------------------------------------------------------
 Center     Atomic      Atomic             Coordinates (Angstroms)
 Number     Number       Type             X           Y           Z
 ---------------------------------------------------------------------
      1          6           0       -0.436912   -0.998258   -0.356244
      2          6           0        0.824306   -0.680897    0.271553
      3          6           0        1.760788    0.232458   -0.342645
      4          8           0       -1.228264    0.083964    0.358527
      5          8           0       -3.009772    0.557832   -0.136054
      6          8           0        2.834849    0.564366    0.153016
      7          1           0       -3.383798    0.331354    0.736280
      8          1           0       -0.519935   -0.825452   -1.431153
      9          1           0       -0.928881   -1.921059   -0.056060
     10          1           0        1.469440    0.617297   -1.346813
     11          1           0        1.050521   -1.066353    1.260969
     12          1           0       -1.002286    0.948934   -0.037055
 ---------------------------------------------------------------------
                    Distance matrix (angstroms):
                    1          2          3          4          5
     1  C    0.000000
     2  C    1.444133   0.000000
     3  C    2.518876   1.445148   0.000000
     4  O    1.519323   2.192172   3.073781   0.000000
     5  O    3.014881   4.049784   4.786105   1.908647   0.000000
     6  O    3.661361   2.367914   1.228597   4.096574   5.851770
     7  H    3.412567   4.353017   5.257436   2.202323   0.975784
     8  H    1.091872   2.174187   2.739658   2.128784   3.128905
     9  H    1.087982   2.172325   3.457468   2.069209   3.237500
    10  H    2.688015   2.172697   1.114154   3.235775   4.640347
    11  H    2.198289   1.085677   2.182422   2.707489   4.590821
    12  H    2.052581   2.467392   2.870767   0.977612   2.047623
                    6          7          8          9         10
     6  O    0.000000
     7  H    6.250286   0.000000
     8  H    3.961788   3.773284   0.000000
     9  H    4.515165   3.424585   1.805124   0.000000
    10  H    2.028948   5.289136   2.458913   3.723069   0.000000
    11  H    2.659066   4.678897   3.126002   2.526484   3.132203
    12  H    3.861040   2.578963   2.307513   2.870994   2.816892
                   11         12
    11  H    0.000000
    12  H    3.155989   0.000000
 Symmetry turned off by external request.
 Stoichiometry    C3H6O3
 Framework group  C1[X(C3H6O3)]
 Deg. of freedom    30
 Full point group                 C1      NOp   1
 Rotational constants (GHZ):          10.5525802           1.3486226           1.2712006
 Standard basis: 6-31+G(d) (6D, 7F)
   126 basis functions,   216 primitive gaussians,   126 cartesian basis functions
    24 alpha electrons       24 beta electrons
       nuclear repulsion energy       223.1915830395 Hartrees.
 NAtoms=   12 NActive=   12 NUniq=   12 SFac= 1.00D+00 NAtFMM=   60 NAOKFM=F Big=F
 Integral buffers will be    131072 words long.
 Raffenetti 2 integral format.
 Two-electron integral symmetry is turned off.
 One-electron integrals computed using PRISM.
 NBasis=   126 RedAO= T EigKep=  9.86D-05  NBF=   126
 NBsUse=   126 1.00D-06 EigRej= -1.00D+00 NBFU=   126
 Initial guess from the checkpoint file:  "/scratch/bell/zhao922/YARP/paper-example/KHP-network/pp_0/IRC-folder/Gau-73055.chk"
 B after Tr=     0.001078   -0.000418    0.000385
         Rot=    1.000000    0.000034   -0.000005   -0.000035 Ang=   0.01 deg.
 ExpMin= 4.38D-02 ExpMax= 5.48D+03 ExpMxC= 8.25D+02 IAcc=3 IRadAn=         5 AccDes= 0.00D+00
 Harris functional with IExCor=  402 and IRadAn=       5 diagonalized for initial guess.
 HarFok:  IExCor=  402 AccDes= 0.00D+00 IRadAn=         5 IDoV= 1 UseB2=F ITyADJ=14
 ICtDFT=  3500011 ScaDFX=  1.000000  1.000000  1.000000  1.000000
 FoFCou: FMM=F IPFlag=           0 FMFlag=      100000 FMFlg1=           0
         NFxFlg=           0 DoJE=T BraDBF=F KetDBF=T FulRan=T
         wScrn=  0.000000 ICntrl=       500 IOpCl=  0 I1Cent=   200000004 NGrid=           0
         NMat0=    1 NMatS0=      1 NMatT0=    0 NMatD0=    1 NMtDS0=    0 NMtDT0=    0
 Symmetry not used in FoFCou.
 Keep R1 ints in memory in canonical form, NReq=47237243.
 Requested convergence on RMS density matrix=1.00D-08 within 128 cycles.
 Requested convergence on MAX density matrix=1.00D-06.
 Requested convergence on             energy=1.00D-06.
 No special actions if energy rises.
 SCF Done:  E(RB3LYP) =  -343.423799098     A.U. after   13 cycles
            NFock= 13  Conv=0.41D-08     -V/T= 2.0093
 DoSCS=F DFT=T ScalE2(SS,OS)=  1.000000  1.000000
 Range of M.O.s used for correlation:     1   126
 NBasis=   126 NAE=    24 NBE=    24 NFC=     0 NFV=     0
 NROrb=    126 NOA=    24 NOB=    24 NVA=   102 NVB=   102

 **** Warning!!: The largest alpha MO coefficient is  0.30607457D+02


 **** Warning!!: The smallest alpha delta epsilon is  0.90243423D-01

 Symmetrizing basis deriv contribution to polar:
 IMax=3 JMax=2 DiffMx= 0.00D+00
 G2DrvN: will do    13 centers at a time, making    1 passes.
 Calling FoFCou, ICntrl=  3107 FMM=F I1Cent=   0 AccDes= 0.00D+00.
 End of G2Drv F.D. properties file   721 does not exist.
 End of G2Drv F.D. properties file   722 does not exist.
 End of G2Drv F.D. properties file   788 does not exist.
          IDoAtm=111111111111
          Differentiating once with respect to nuclear coordinates.
 Keep R1 ints in memory in canonical form, NReq=47193265.
          There are    39 degrees of freedom in the 1st order CPHF.  IDoFFX=6 NUNeed=     0.
     33 vectors produced by pass  0 Test12= 6.28D-15 2.56D-09 XBig12= 1.79D-01 2.15D-01.
 AX will form    33 AO Fock derivatives at one time.
     33 vectors produced by pass  1 Test12= 6.28D-15 2.56D-09 XBig12= 1.22D-01 7.75D-02.
     33 vectors produced by pass  2 Test12= 6.28D-15 2.56D-09 XBig12= 1.01D-03 6.09D-03.
     33 vectors produced by pass  3 Test12= 6.28D-15 2.56D-09 XBig12= 4.87D-06 4.17D-04.
     33 vectors produced by pass  4 Test12= 6.28D-15 2.56D-09 XBig12= 8.42D-09 1.17D-05.
     31 vectors produced by pass  5 Test12= 6.28D-15 2.56D-09 XBig12= 9.76D-12 5.79D-07.
      5 vectors produced by pass  6 Test12= 6.28D-15 2.56D-09 XBig12= 8.10D-15 1.08D-08.
 InvSVY:  IOpt=1 It=  1 EMax= 1.78D-15
 Solved reduced A of dimension   201 with    33 vectors.
 End of Minotr F.D. properties file   721 does not exist.
 End of Minotr F.D. properties file   722 does not exist.
 End of Minotr F.D. properties file   788 does not exist.
 Calling FoFJK, ICntrl=    100127 FMM=F ISym2X=0 I1Cent= 0 IOpClX= 0 NMat=1 NMatS=1 NMatT=0.
 -------------------------------------------------------------------
 Center     Atomic                   Forces (Hartrees/Bohr)
 Number     Number              X              Y              Z
 -------------------------------------------------------------------
      1        6           0.000461458   -0.000391461   -0.000101341
      2        6          -0.000112351    0.000037843    0.000048567
      3        6           0.000207028   -0.000124383   -0.000023088
      4        8          -0.000572044    0.001511636   -0.001068242
      5        8           0.000076656   -0.000182494    0.000666719
      6        8           0.000023315    0.000020111    0.000005775
      7        1           0.000137835    0.000013655   -0.000233910
      8        1           0.000018054    0.000013138    0.000023543
      9        1           0.000010593    0.000016540   -0.000005735
     10        1           0.000039100   -0.000066216    0.000036518
     11        1          -0.000017869    0.000036186   -0.000006066
     12        1          -0.000271775   -0.000884555    0.000657259
 -------------------------------------------------------------------
 Cartesian Forces:  Max     0.001511636 RMS     0.000410366
 IRC-IRC-IRC-IRC-IRC-IRC-IRC-IRC-IRC-IRC-IRC-IRC-IRC-IRC-IRC-IRC-IRC-IRC
 Pt  2 Step number   1 out of a maximum of 100
 Modified Bulirsch-Stoer Extrapolation Cycles:
    EPS =    0.000010000000000
      PEZero:  N= 2 I= 1 D=  1.31D-03 Err=  2.50D-02
      PEZero:  N= 3 I= 2 D=  1.31D-03 Err=  3.97D-02
      PEZero:  N= 3 I= 1 D=  2.61D-03 Err=  3.46D-02
      PEZero:  N= 4 I= 3 D=  6.53D-04 Err=  7.03D-02
      PEZero:  N= 4 I= 2 D=  1.96D-03 Err=  5.39D-02
      PEZero:  N= 4 I= 1 D=  3.27D-03 Err=  4.40D-02
      PEZero:  N= 5 I= 4 D=  6.53D-04 Err=  9.93D-02
      PEZero:  N= 5 I= 3 D=  1.31D-03 Err=  7.87D-02
      PEZero:  N= 5 I= 2 D=  2.61D-03 Err=  5.18D-02
      PEZero:  N= 5 I= 1 D=  3.92D-03 Err=  3.71D-02
      PEZero:  N= 6 I= 5 D=  3.27D-04 Err=  4.23D-02
      PEZero:  N= 6 I= 4 D=  9.80D-04 Err=  4.30D-02
      PEZero:  N= 7 I= 6 D=  3.27D-04 Err=  1.18D-05
      PEZero:  N= 7 I= 5 D=  6.53D-04 Err=  4.23D-02
      PEZero:  N= 8 I= 7 D=  1.63D-04 Err=  9.00D-06
      PEZero:  N= 8 I= 6 D=  4.90D-04 Err=  6.77D-07
      PEZero:  N= 8 I= 5 D=  8.17D-04 Err=  4.72D-02
 Maximum DWI energy   std dev =  0.000002202 at pt   156
 Maximum DWI gradient std dev =  0.514399962 at pt   145
 CORRECTOR INTEGRATION CONVERGENCE:
   Recorrection delta-x convergence threshold:    0.010000
   Delta-x Convergence NOT Met
 IRC-IRC-IRC-IRC-IRC-IRC-IRC-IRC-IRC-IRC-IRC-IRC-IRC-IRC-IRC-IRC-IRC-IRC
                          Input orientation:                          
 ---------------------------------------------------------------------
 Center     Atomic      Atomic             Coordinates (Angstroms)
 Number     Number       Type             X           Y           Z
 ---------------------------------------------------------------------
      1          6           0       -0.436447   -0.998849   -0.356020
      2          6           0        0.824387   -0.681136    0.271471
      3          6           0        1.760448    0.232725   -0.342753
      4          8           0       -1.229063    0.083728    0.359495
      5          8           0       -3.008870    0.558153   -0.136805
      6          8           0        2.834631    0.564632    0.152501
      7          1           0       -3.384017    0.332201    0.734858
      8          1           0       -0.520399   -0.825053   -1.430642
      9          1           0       -0.928667   -1.921424   -0.055741
     10          1           0        1.468506    0.617946   -1.346498
     11          1           0        1.051310   -1.067074    1.260495
     12          1           0       -1.001157    0.948942   -0.031497
 ---------------------------------------------------------------------
                    Distance matrix (angstroms):
                    1          2          3          4          5
     1  C    0.000000
     2  C    1.443741   0.000000
     3  C    2.518591   1.445207   0.000000
     4  O    1.520584   2.193039   3.074496   0.000000
     5  O    3.014907   4.049244   4.784842   1.907644   0.000000
     6  O    3.661014   2.367947   1.228539   4.097282   5.850661
     7  H    3.413192   4.353417   5.257058   2.201468   0.975493
     8  H    1.091817   2.174016   2.739463   2.129008   3.127260
     9  H    1.087930   2.172229   3.457466   2.069612   3.237610
    10  H    2.687734   2.172630   1.114060   3.236151   4.638299
    11  H    2.197999   1.085639   2.182375   2.708551   4.591173
    12  H    2.053802   2.466081   2.869897   0.976428   2.048100
                    6          7          8          9         10
     6  O    0.000000
     7  H    6.250180   0.000000
     8  H    3.961539   3.772126   0.000000
     9  H    4.515113   3.425291   1.805288   0.000000
    10  H    2.028827   5.287785   2.458672   3.723021   0.000000
    11  H    2.659013   4.680426   3.125870   2.526401   3.132053
    12  H    3.859381   2.577924   2.309933   2.871384   2.817449
                   11         12
    11  H    0.000000
    12  H    3.153757   0.000000
 Symmetry turned off by external request.
 Stoichiometry    C3H6O3
 Framework group  C1[X(C3H6O3)]
 Deg. of freedom    30
 Full point group                 C1      NOp   1
 Rotational constants (GHZ):          10.5443199           1.3489447           1.2714013
 Standard basis: 6-31+G(d) (6D, 7F)
   126 basis functions,   216 primitive gaussians,   126 cartesian basis functions
    24 alpha electrons       24 beta electrons
       nuclear repulsion energy       223.1960094586 Hartrees.
 NAtoms=   12 NActive=   12 NUniq=   12 SFac= 1.00D+00 NAtFMM=   60 NAOKFM=F Big=F
 Integral buffers will be    131072 words long.
 Raffenetti 2 integral format.
 Two-electron integral symmetry is turned off.
 One-electron integrals computed using PRISM.
 NBasis=   126 RedAO= T EigKep=  9.85D-05  NBF=   126
 NBsUse=   126 1.00D-06 EigRej= -1.00D+00 NBFU=   126
 Initial guess from the checkpoint file:  "/scratch/bell/zhao922/YARP/paper-example/KHP-network/pp_0/IRC-folder/Gau-73055.chk"
 B after Tr=     0.000033    0.000010    0.000102
         Rot=    1.000000   -0.000007   -0.000014   -0.000007 Ang=  -0.00 deg.
 ExpMin= 4.38D-02 ExpMax= 5.48D+03 ExpMxC= 8.25D+02 IAcc=3 IRadAn=         5 AccDes= 0.00D+00
 Harris functional with IExCor=  402 and IRadAn=       5 diagonalized for initial guess.
 HarFok:  IExCor=  402 AccDes= 0.00D+00 IRadAn=         5 IDoV= 1 UseB2=F ITyADJ=14
 ICtDFT=  3500011 ScaDFX=  1.000000  1.000000  1.000000  1.000000
 FoFCou: FMM=F IPFlag=           0 FMFlag=      100000 FMFlg1=           0
         NFxFlg=           0 DoJE=T BraDBF=F KetDBF=T FulRan=T
         wScrn=  0.000000 ICntrl=       500 IOpCl=  0 I1Cent=   200000004 NGrid=           0
         NMat0=    1 NMatS0=      1 NMatT0=    0 NMatD0=    1 NMtDS0=    0 NMtDT0=    0
 Symmetry not used in FoFCou.
 Keep R1 ints in memory in canonical form, NReq=47237243.
 Requested convergence on RMS density matrix=1.00D-08 within 128 cycles.
 Requested convergence on MAX density matrix=1.00D-06.
 Requested convergence on             energy=1.00D-06.
 No special actions if energy rises.
 SCF Done:  E(RB3LYP) =  -343.423801537     A.U. after   11 cycles
            NFock= 11  Conv=0.34D-08     -V/T= 2.0093
 DoSCS=F DFT=T ScalE2(SS,OS)=  1.000000  1.000000
 Range of M.O.s used for correlation:     1   126
 NBasis=   126 NAE=    24 NBE=    24 NFC=     0 NFV=     0
 NROrb=    126 NOA=    24 NOB=    24 NVA=   102 NVB=   102

 **** Warning!!: The largest alpha MO coefficient is  0.30582622D+02


 **** Warning!!: The smallest alpha delta epsilon is  0.90345085D-01

 Symmetrizing basis deriv contribution to polar:
 IMax=3 JMax=2 DiffMx= 0.00D+00
 Calling FoFJK, ICntrl=      2127 FMM=F ISym2X=0 I1Cent= 0 IOpClX= 0 NMat=1 NMatS=1 NMatT=0.
 -------------------------------------------------------------------
 Center     Atomic                   Forces (Hartrees/Bohr)
 Number     Number              X              Y              Z
 -------------------------------------------------------------------
      1        6           0.000300491   -0.000066173   -0.000072528
      2        6           0.000003307    0.000051926    0.000098262
      3        6           0.000152995   -0.000188429   -0.000009935
      4        8          -0.000936486    0.000321659   -0.000613395
      5        8           0.000242341   -0.000100131    0.000476376
      6        8           0.000085809    0.000048517    0.000041592
      7        1           0.000025120   -0.000063033    0.000017017
      8        1           0.000035106   -0.000005295   -0.000005566
      9        1           0.000005854    0.000008175    0.000001917
     10        1           0.000026700   -0.000045635   -0.000016828
     11        1          -0.000012926    0.000020725    0.000017221
     12        1           0.000071689    0.000017694    0.000065866
 -------------------------------------------------------------------
 Cartesian Forces:  Max     0.000936486 RMS     0.000227011
 IRC-IRC-IRC-IRC-IRC-IRC-IRC-IRC-IRC-IRC-IRC-IRC-IRC-IRC-IRC-IRC-IRC-IRC
 Error in corrector energy =           0.0000001062
 Magnitude of corrector gradient =     0.0013532837
 Magnitude of analytic gradient =      0.0013620656
 Magnitude of difference =             0.0000334107
 Angle between gradients (degrees)=    1.3604
 Pt  2 Step number   2 out of a maximum of 100
 Modified Bulirsch-Stoer Extrapolation Cycles:
    EPS =    0.000010000000000
      PEZero:  N= 2 I= 1 D=  1.31D-03 Err=  2.65D-02
      PEZero:  N= 3 I= 2 D=  1.31D-03 Err=  4.14D-02
      PEZero:  N= 3 I= 1 D=  2.61D-03 Err=  3.56D-02
      PEZero:  N= 4 I= 3 D=  6.53D-04 Err=  7.12D-02
      PEZero:  N= 4 I= 2 D=  1.96D-03 Err=  5.36D-02
      PEZero:  N= 4 I= 1 D=  3.27D-03 Err=  4.30D-02
      PEZero:  N= 5 I= 4 D=  6.53D-04 Err=  1.00D-01
      PEZero:  N= 5 I= 3 D=  1.31D-03 Err=  7.90D-02
      PEZero:  N= 5 I= 2 D=  2.61D-03 Err=  5.22D-02
      PEZero:  N= 5 I= 1 D=  3.92D-03 Err=  3.78D-02
      PEZero:  N= 6 I= 5 D=  3.27D-04 Err=  3.56D-02
      PEZero:  N= 6 I= 4 D=  9.80D-04 Err=  5.26D-02
      PEZero:  N= 7 I= 6 D=  3.27D-04 Err=  1.15D-05
      PEZero:  N= 7 I= 5 D=  6.53D-04 Err=  3.56D-02
      PEZero:  N= 8 I= 7 D=  1.63D-04 Err=  8.72D-06
      PEZero:  N= 8 I= 6 D=  4.90D-04 Err=  6.39D-07
      PEZero:  N= 8 I= 5 D=  8.17D-04 Err=  4.74D-02
 Maximum DWI energy   std dev =  0.000002552 at pt   144
 Maximum DWI gradient std dev =  0.891950904 at pt   137
 CORRECTOR INTEGRATION CONVERGENCE:
   Recorrection delta-x convergence threshold:    0.010000
   Delta-x Convergence Met
 Point Number:   2          Path Number:   1
   CHANGE IN THE REACTION COORDINATE =    0.25053
   NET REACTION COORDINATE UP TO THIS POINT =    0.49993
  # OF POINTS ALONG THE PATH =   2
  # OF STEPS =   2

 Calculating another point on the path.
 IRC-IRC-IRC-IRC-IRC-IRC-IRC-IRC-IRC-IRC-IRC-IRC-IRC-IRC-IRC-IRC-IRC-IRC
                          Input orientation:                          
 ---------------------------------------------------------------------
 Center     Atomic      Atomic             Coordinates (Angstroms)
 Number     Number       Type             X           Y           Z
 ---------------------------------------------------------------------
      1          6           0       -0.427164   -1.001258   -0.358306
      2          6           0        0.824573   -0.679121    0.274662
      3          6           0        1.765372    0.227093   -0.343063
      4          8           0       -1.250003    0.089805    0.345104
      5          8           0       -3.004319    0.556759   -0.125456
      6          8           0        2.836789    0.565848    0.153688
      7          1           0       -3.375307    0.311045    0.743003
      8          1           0       -0.506875   -0.828314   -1.433223
      9          1           0       -0.925571   -1.919374   -0.055068
     10          1           0        1.478866    0.601113   -1.353089
     11          1           0        1.046303   -1.058395    1.267484
     12          1           0       -0.977151    0.957499   -0.015680
 ---------------------------------------------------------------------
                    Distance matrix (angstroms):
                    1          2          3          4          5
     1  C    0.000000
     2  C    1.439190   0.000000
     3  C    2.513224   1.444960   0.000000
     4  O    1.536967   2.213611   3.095951   0.000000
     5  O    3.020491   4.043255   4.786020   1.875393   0.000000
     6  O    3.656685   2.369302   1.228597   4.118874   5.847782
     7  H    3.409775   4.340365   5.254824   2.173520   0.975822
     8  H    1.091654   2.170687   2.732295   2.134860   3.141005
     9  H    1.087796   2.170243   3.454191   2.074173   3.233788
    10  H    2.681443   2.171789   1.114508   3.254538   4.648440
    11  H    2.194894   1.085684   2.182522   2.728034   4.577832
    12  H    2.063154   2.451332   2.856940   0.978522   2.069313
                    6          7          8          9         10
     6  O    0.000000
     7  H    6.245186   0.000000
     8  H    3.955004   3.776507   0.000000
     9  H    4.513896   3.407770   1.806939   0.000000
    10  H    2.028688   5.295350   2.448029   3.717396   0.000000
    11  H    2.661681   4.658442   3.123958   2.525612   3.131849
    12  H    3.837735   2.597047   2.328027   2.877605   2.819165
                   11         12
    11  H    0.000000
    12  H    3.131246   0.000000
 Symmetry turned off by external request.
 Stoichiometry    C3H6O3
 Framework group  C1[X(C3H6O3)]
 Deg. of freedom    30
 Full point group                 C1      NOp   1
 Rotational constants (GHZ):          10.5739892           1.3472523           1.2695378
 Standard basis: 6-31+G(d) (6D, 7F)
   126 basis functions,   216 primitive gaussians,   126 cartesian basis functions
    24 alpha electrons       24 beta electrons
       nuclear repulsion energy       223.1603605016 Hartrees.
 NAtoms=   12 NActive=   12 NUniq=   12 SFac= 1.00D+00 NAtFMM=   60 NAOKFM=F Big=F
 Integral buffers will be    131072 words long.
 Raffenetti 2 integral format.
 Two-electron integral symmetry is turned off.
 One-electron integrals computed using PRISM.
 NBasis=   126 RedAO= T EigKep=  9.82D-05  NBF=   126
 NBsUse=   126 1.00D-06 EigRej= -1.00D+00 NBFU=   126
 Initial guess from the checkpoint file:  "/scratch/bell/zhao922/YARP/paper-example/KHP-network/pp_0/IRC-folder/Gau-73055.chk"
 B after Tr=     0.001068   -0.000420    0.000427
         Rot=    1.000000    0.000147   -0.000012   -0.000042 Ang=   0.02 deg.
 ExpMin= 4.38D-02 ExpMax= 5.48D+03 ExpMxC= 8.25D+02 IAcc=3 IRadAn=         5 AccDes= 0.00D+00
 Harris functional with IExCor=  402 and IRadAn=       5 diagonalized for initial guess.
 HarFok:  IExCor=  402 AccDes= 0.00D+00 IRadAn=         5 IDoV= 1 UseB2=F ITyADJ=14
 ICtDFT=  3500011 ScaDFX=  1.000000  1.000000  1.000000  1.000000
 FoFCou: FMM=F IPFlag=           0 FMFlag=      100000 FMFlg1=           0
         NFxFlg=           0 DoJE=T BraDBF=F KetDBF=T FulRan=T
         wScrn=  0.000000 ICntrl=       500 IOpCl=  0 I1Cent=   200000004 NGrid=           0
         NMat0=    1 NMatS0=      1 NMatT0=    0 NMatD0=    1 NMtDS0=    0 NMtDT0=    0
 Symmetry not used in FoFCou.
 Keep R1 ints in memory in canonical form, NReq=47237243.
 Requested convergence on RMS density matrix=1.00D-08 within 128 cycles.
 Requested convergence on MAX density matrix=1.00D-06.
 Requested convergence on             energy=1.00D-06.
 No special actions if energy rises.
 SCF Done:  E(RB3LYP) =  -343.423904522     A.U. after   13 cycles
            NFock= 13  Conv=0.37D-08     -V/T= 2.0093
 DoSCS=F DFT=T ScalE2(SS,OS)=  1.000000  1.000000
 Range of M.O.s used for correlation:     1   126
 NBasis=   126 NAE=    24 NBE=    24 NFC=     0 NFV=     0
 NROrb=    126 NOA=    24 NOB=    24 NVA=   102 NVB=   102

 **** Warning!!: The largest alpha MO coefficient is  0.30734596D+02


 **** Warning!!: The smallest alpha delta epsilon is  0.92902113D-01

 Symmetrizing basis deriv contribution to polar:
 IMax=3 JMax=2 DiffMx= 0.00D+00
 G2DrvN: will do    13 centers at a time, making    1 passes.
 Calling FoFCou, ICntrl=  3107 FMM=F I1Cent=   0 AccDes= 0.00D+00.
 End of G2Drv F.D. properties file   721 does not exist.
 End of G2Drv F.D. properties file   722 does not exist.
 End of G2Drv F.D. properties file   788 does not exist.
          IDoAtm=111111111111
          Differentiating once with respect to nuclear coordinates.
 Keep R1 ints in memory in canonical form, NReq=47193265.
          There are    39 degrees of freedom in the 1st order CPHF.  IDoFFX=6 NUNeed=     0.
     33 vectors produced by pass  0 Test12= 6.28D-15 2.56D-09 XBig12= 1.81D-01 2.20D-01.
 AX will form    33 AO Fock derivatives at one time.
     33 vectors produced by pass  1 Test12= 6.28D-15 2.56D-09 XBig12= 1.10D-01 7.21D-02.
     33 vectors produced by pass  2 Test12= 6.28D-15 2.56D-09 XBig12= 9.64D-04 5.83D-03.
     33 vectors produced by pass  3 Test12= 6.28D-15 2.56D-09 XBig12= 4.72D-06 4.15D-04.
     33 vectors produced by pass  4 Test12= 6.28D-15 2.56D-09 XBig12= 8.06D-09 1.16D-05.
     31 vectors produced by pass  5 Test12= 6.28D-15 2.56D-09 XBig12= 9.01D-12 5.78D-07.
      5 vectors produced by pass  6 Test12= 6.28D-15 2.56D-09 XBig12= 7.46D-15 1.08D-08.
 InvSVY:  IOpt=1 It=  1 EMax= 1.33D-15
 Solved reduced A of dimension   201 with    33 vectors.
 End of Minotr F.D. properties file   721 does not exist.
 End of Minotr F.D. properties file   722 does not exist.
 End of Minotr F.D. properties file   788 does not exist.
 Calling FoFJK, ICntrl=    100127 FMM=F ISym2X=0 I1Cent= 0 IOpClX= 0 NMat=1 NMatS=1 NMatT=0.
 -------------------------------------------------------------------
 Center     Atomic                   Forces (Hartrees/Bohr)
 Number     Number              X              Y              Z
 -------------------------------------------------------------------
      1        6           0.000711565   -0.000605090   -0.000185950
      2        6          -0.000122229    0.000050073    0.000061704
      3        6           0.000272033   -0.000151576   -0.000028613
      4        8          -0.000799897    0.001899219   -0.001226384
      5        8           0.000228373   -0.000070762    0.000734471
      6        8           0.000048365    0.000047903    0.000023522
      7        1           0.000099151   -0.000004951   -0.000136341
      8        1           0.000028966    0.000012444    0.000015502
      9        1           0.000017483    0.000012085   -0.000005287
     10        1           0.000045112   -0.000073525    0.000027255
     11        1          -0.000019035    0.000040402    0.000006949
     12        1          -0.000509888   -0.001156222    0.000713173
 -------------------------------------------------------------------
 Cartesian Forces:  Max     0.001899219 RMS     0.000514366
 IRC-IRC-IRC-IRC-IRC-IRC-IRC-IRC-IRC-IRC-IRC-IRC-IRC-IRC-IRC-IRC-IRC-IRC
 Pt  3 Step number   1 out of a maximum of 100
 Modified Bulirsch-Stoer Extrapolation Cycles:
    EPS =    0.000010000000000
      PEZero:  N= 2 I= 1 D=  1.31D-03 Err=  4.01D-02
      PEZero:  N= 3 I= 2 D=  1.31D-03 Err=  6.06D-02
      PEZero:  N= 3 I= 1 D=  2.62D-03 Err=  5.08D-02
      PEZero:  N= 4 I= 3 D=  6.55D-04 Err=  1.05D-01
      PEZero:  N= 4 I= 2 D=  1.96D-03 Err=  7.87D-02
      PEZero:  N= 4 I= 1 D=  3.27D-03 Err=  6.40D-02
      PEZero:  N= 5 I= 4 D=  6.55D-04 Err=  6.38D-02
      PEZero:  N= 5 I= 3 D=  1.31D-03 Err=  8.82D-03
      PEZero:  N= 5 I= 2 D=  2.62D-03 Err=  4.82D-02
      PEZero:  N= 6 I= 5 D=  3.27D-04 Err=  2.74D-05
      PEZero:  N= 6 I= 4 D=  9.82D-04 Err=  6.38D-02
      PEZero:  N= 7 I= 6 D=  3.27D-04 Err=  1.83D-05
      PEZero:  N= 7 I= 5 D=  6.55D-04 Err=  3.60D-07
      PEZero:  N= 7 I= 4 D=  1.31D-03 Err=  4.41D-03
 Maximum DWI energy   std dev =  0.000001365 at pt   122
 Maximum DWI gradient std dev =  0.511358097 at pt   124
 CORRECTOR INTEGRATION CONVERGENCE:
   Recorrection delta-x convergence threshold:    0.010000
   Delta-x Convergence NOT Met
 IRC-IRC-IRC-IRC-IRC-IRC-IRC-IRC-IRC-IRC-IRC-IRC-IRC-IRC-IRC-IRC-IRC-IRC
                          Input orientation:                          
 ---------------------------------------------------------------------
 Center     Atomic      Atomic             Coordinates (Angstroms)
 Number     Number       Type             X           Y           Z
 ---------------------------------------------------------------------
      1          6           0       -0.426544   -1.002000   -0.358413
      2          6           0        0.824568   -0.679317    0.274462
      3          6           0        1.765182    0.227338   -0.343114
      4          8           0       -1.250529    0.090007    0.345868
      5          8           0       -3.003830    0.556989   -0.125900
      6          8           0        2.836640    0.565888    0.153494
      7          1           0       -3.375688    0.312193    0.742228
      8          1           0       -0.507188   -0.828017   -1.433033
      9          1           0       -0.925493   -1.919681   -0.054961
     10          1           0        1.478314    0.601844   -1.352756
     11          1           0        1.046787   -1.058984    1.266998
     12          1           0       -0.979109    0.957175   -0.013038
 ---------------------------------------------------------------------
                    Distance matrix (angstroms):
                    1          2          3          4          5
     1  C    0.000000
     2  C    1.438727   0.000000
     3  C    2.513000   1.445053   0.000000
     4  O    1.538650   2.214269   3.096461   0.000000
     5  O    3.021078   4.042941   4.785325   1.874754   0.000000
     6  O    3.656321   2.369304   1.228518   4.119274   5.847156
     7  H    3.411153   4.340972   5.254875   2.173193   0.975627
     8  H    1.091596   2.170536   2.732281   2.135372   3.140074
     9  H    1.087737   2.170192   3.454338   2.074887   3.233947
    10  H    2.681327   2.171772   1.114417   3.254825   4.647236
    11  H    2.194519   1.085660   2.182471   2.728795   4.578104
    12  H    2.064698   2.452348   2.858802   0.976965   2.066974
                    6          7          8          9         10
     6  O    0.000000
     7  H    6.245316   0.000000
     8  H    3.954898   3.776259   0.000000
     9  H    4.513884   3.408844   1.807151   0.000000
    10  H    2.028578   5.294732   2.448094   3.717613   0.000000
    11  H    2.661517   4.659806   3.123836   2.525522   3.131721
    12  H    3.839372   2.594227   2.329379   2.877660   2.821353
                   11         12
    11  H    0.000000
    12  H    3.131716   0.000000
 Symmetry turned off by external request.
 Stoichiometry    C3H6O3
 Framework group  C1[X(C3H6O3)]
 Deg. of freedom    30
 Full point group                 C1      NOp   1
 Rotational constants (GHZ):          10.5659963           1.3474061           1.2695928
 Standard basis: 6-31+G(d) (6D, 7F)
   126 basis functions,   216 primitive gaussians,   126 cartesian basis functions
    24 alpha electrons       24 beta electrons
       nuclear repulsion energy       223.1561247032 Hartrees.
 NAtoms=   12 NActive=   12 NUniq=   12 SFac= 1.00D+00 NAtFMM=   60 NAOKFM=F Big=F
 Integral buffers will be    131072 words long.
 Raffenetti 2 integral format.
 Two-electron integral symmetry is turned off.
 One-electron integrals computed using PRISM.
 NBasis=   126 RedAO= T EigKep=  9.80D-05  NBF=   126
 NBsUse=   126 1.00D-06 EigRej= -1.00D+00 NBFU=   126
 Initial guess from the checkpoint file:  "/scratch/bell/zhao922/YARP/paper-example/KHP-network/pp_0/IRC-folder/Gau-73055.chk"
 B after Tr=    -0.000062    0.000022    0.000037
         Rot=    1.000000   -0.000031   -0.000003    0.000001 Ang=  -0.00 deg.
 ExpMin= 4.38D-02 ExpMax= 5.48D+03 ExpMxC= 8.25D+02 IAcc=3 IRadAn=         5 AccDes= 0.00D+00
 Harris functional with IExCor=  402 and IRadAn=       5 diagonalized for initial guess.
 HarFok:  IExCor=  402 AccDes= 0.00D+00 IRadAn=         5 IDoV= 1 UseB2=F ITyADJ=14
 ICtDFT=  3500011 ScaDFX=  1.000000  1.000000  1.000000  1.000000
 FoFCou: FMM=F IPFlag=           0 FMFlag=      100000 FMFlg1=           0
         NFxFlg=           0 DoJE=T BraDBF=F KetDBF=T FulRan=T
         wScrn=  0.000000 ICntrl=       500 IOpCl=  0 I1Cent=   200000004 NGrid=           0
         NMat0=    1 NMatS0=      1 NMatT0=    0 NMatD0=    1 NMtDS0=    0 NMtDT0=    0
 Symmetry not used in FoFCou.
 Keep R1 ints in memory in canonical form, NReq=47237243.
 Requested convergence on RMS density matrix=1.00D-08 within 128 cycles.
 Requested convergence on MAX density matrix=1.00D-06.
 Requested convergence on             energy=1.00D-06.
 No special actions if energy rises.
 SCF Done:  E(RB3LYP) =  -343.423908187     A.U. after   11 cycles
            NFock= 11  Conv=0.33D-08     -V/T= 2.0093
 DoSCS=F DFT=T ScalE2(SS,OS)=  1.000000  1.000000
 Range of M.O.s used for correlation:     1   126
 NBasis=   126 NAE=    24 NBE=    24 NFC=     0 NFV=     0
 NROrb=    126 NOA=    24 NOB=    24 NVA=   102 NVB=   102

 **** Warning!!: The largest alpha MO coefficient is  0.30744358D+02


 **** Warning!!: The smallest alpha delta epsilon is  0.93029894D-01

[...]
  15                    0.84870  -1.22147   1.01133  -1.08069   1.24822
  16                    0.81909  -1.24753   1.00273  -1.07503   1.24641
  17                    0.78745  -1.27254   0.99255  -1.06938   1.24528
  18                    0.75934  -1.29247   0.98259  -1.06523   1.24491
  19                    0.73954  -1.30532   0.97612  -1.06272   1.24566
  20                    0.72698  -1.31286   0.97394  -1.06093   1.24753
  21                    0.71841  -1.31762   0.97475  -1.05932   1.24997
  22                    0.71191  -1.32096   0.97758  -1.05780   1.25251
  23                    0.70658  -1.32350   0.98195  -1.05645   1.25483
  24                    0.70196  -1.32552   0.98758  -1.05543   1.25672
  25                    0.69783  -1.32716   0.99431  -1.05486   1.25805
  26                    0.69407  -1.32847   1.00193  -1.05485   1.25871
  27                    0.69060  -1.32946   1.01020  -1.05544   1.25869
  28                    0.68738  -1.33014   1.01879  -1.05656   1.25803
  29                    0.68435  -1.33047   1.02723  -1.05806   1.25683
  30                    0.68147  -1.33048   1.03499  -1.05970   1.25528
  31                    0.67873  -1.33022   1.04151  -1.06124   1.25359
  32                    0.67646  -1.33002   1.04600  -1.06246   1.25216
  33                    0.67509  -1.33009   1.04828  -1.06326   1.25133
  34                    0.67401  -1.33031   1.04983  -1.06400   1.25068
  35                    0.67274  -1.33063   1.05136  -1.06497   1.24997
  36                    0.67109  -1.33106   1.05298  -1.06630   1.24920
  37                    0.66889  -1.33157   1.05468  -1.06803   1.24844
  38                    0.66585  -1.33223   1.05643  -1.07019   1.24786
  39                    0.66154  -1.33311   1.05798  -1.07255   1.24770
  40                    0.65513  -1.33453   1.05883  -1.07463   1.24843
  41                    0.64602  -1.33694   1.05826  -1.07519   1.25056
  42                    0.63381  -1.34071   1.05584  -1.07326   1.25445
  43                    0.61791  -1.34656   1.05131  -1.06686   1.26058
  44                    0.60205  -1.35270   1.04692  -1.05899   1.26695
  45                    0.58889  -1.35783   1.04413  -1.05216   1.27220
  46                    0.57987  -1.36127   1.04352  -1.04829   1.27542
  47                    0.57416  -1.36341   1.04439  -1.04682   1.27702
  48                    0.57068  -1.36475   1.04588  -1.04666   1.27761
  49                    0.56841  -1.36566   1.04767  -1.04707   1.27773
  50                    0.56685  -1.36632   1.04960  -1.04769   1.27765
  51                    0.56571  -1.36683   1.05167  -1.04836   1.27753
  52                    0.56481  -1.36723   1.05390  -1.04901   1.27743
  53                    0.56405  -1.36756   1.05636  -1.04965   1.27742
  54                    0.56336  -1.36785   1.05916  -1.05027   1.27753
  55                    0.56266  -1.36814   1.06246  -1.05095   1.27778
  56                    0.56191  -1.36845   1.06644  -1.05181   1.27814
  57                    0.56103  -1.36882   1.07130  -1.05305   1.27851
  58                    0.55994  -1.36928   1.07713  -1.05493   1.27870
  59                    0.55853  -1.36986   1.08390  -1.05769   1.27853
  60                    0.55668  -1.37060   1.09158  -1.06145   1.27786
  61                    0.55429  -1.37156   1.10012  -1.06625   1.27663
  62                    0.55126  -1.37280   1.10951  -1.07205   1.27485
  63                    0.54754  -1.37437   1.11974  -1.07877   1.27253
  64                    0.54309  -1.37633   1.13076  -1.08628   1.26974
  65                    0.53790  -1.37870   1.14255  -1.09446   1.26653
  66                    0.53199  -1.38149   1.15505  -1.10318   1.26295
  67                    0.52540  -1.38469   1.16819  -1.11234   1.25908
  68                    0.51818  -1.38828   1.18191  -1.12181   1.25498
  69                    0.51040  -1.39220   1.19611  -1.13150   1.25071
  70                    0.50214  -1.39639   1.21071  -1.14132   1.24634
  71                    0.49351  -1.40081   1.22563  -1.15117   1.24194
  72                    0.48461  -1.40536   1.24078  -1.16098   1.23755
  73                    0.47556  -1.40998   1.25609  -1.17065   1.23324
  74                    0.46650  -1.41460   1.27147  -1.18010   1.22906
  75                    0.45756  -1.41912   1.28684  -1.18924   1.22508
  76                    0.44890  -1.42348   1.30215  -1.19797   1.22133
  77                    0.44064  -1.42762   1.31734  -1.20622   1.21786
  78                    0.43292  -1.43146   1.33234  -1.21392   1.21471
  79                    0.42584  -1.43497   1.34712  -1.22101   1.21191
  80                    0.41947  -1.43810   1.36164  -1.22743   1.20947
  81                    0.41385  -1.44085   1.37587  -1.23316   1.20741
                          X12       Y12       Z12
   1                   -2.46724   0.67884   0.13451
   2                   -2.47224   0.68032   0.13556
   3                   -2.47218   0.68400   0.13721
   4                   -2.46641   0.69018   0.13872
   5                   -2.45620   0.69844   0.13826
   6                   -2.44252   0.70880   0.13416
   7                   -2.42578   0.72172   0.12506
   8                   -2.40650   0.73736   0.11040
   9                   -2.38548   0.75627   0.08966
  10                   -2.36381   0.77757   0.06412
  11                   -2.34238   0.80035   0.03498
  12                   -2.32180   0.82363   0.00358
  13                   -2.30236   0.84635  -0.02873
  14                   -2.28428   0.86772  -0.06040
  15                   -2.26801   0.88726  -0.08939
  16                   -2.25419   0.90456  -0.11349
  17                   -2.24307   0.91921  -0.13178
  18                   -2.23416   0.93055  -0.14470
  19                   -2.22689   0.93778  -0.15290
  20                   -2.22060   0.94137  -0.15774
  21                   -2.21455   0.94236  -0.16061
  22                   -2.20819   0.94124  -0.16224
  23                   -2.20115   0.93803  -0.16293
  24                   -2.19309   0.93247  -0.16278
  25                   -2.18369   0.92410  -0.16179
  26                   -2.17262   0.91233  -0.15994
  27                   -2.15959   0.89639  -0.15720
  28                   -2.14431   0.87548  -0.15359
  29                   -2.12662   0.84882  -0.14917
  30                   -2.10644   0.81589  -0.14397
  31                   -2.08242   0.77682  -0.13754
  32                   -2.02054   0.74432  -0.12889
  33                   -1.90737   0.73583  -0.12176
  34                   -1.78498   0.74368  -0.12035
  35                   -1.66444   0.76372  -0.12498
  36                   -1.54804   0.79211  -0.13171
  37                   -1.43641   0.82334  -0.13507
  38                   -1.33119   0.85383  -0.13073
  39                   -1.23461   0.88106  -0.11862
  40                   -1.15184   0.90395  -0.09957
  41                   -1.08444   0.92265  -0.07574
  42                   -1.03474   0.93757  -0.05147
  43                   -1.00160   0.94878  -0.03168
  44                   -0.97962   0.95707  -0.01342
  45                   -0.96573   0.96332   0.00432
  46                   -0.95750   0.96896   0.02271
  47                   -0.95372   0.97468   0.04060
  48                   -0.95465   0.98088   0.05632
  49                   -0.95902   0.98749   0.07015
  50                   -0.96620   0.99446   0.08236
  51                   -0.97574   1.00178   0.09325
  52                   -0.98731   1.00950   0.10315
  53                   -1.00065   1.01770   0.11240
  54                   -1.01553   1.02654   0.12138
  55                   -1.03171   1.03622   0.13051
  56                   -1.04887   1.04695   0.14018
  57                   -1.06660   1.05873   0.15057
  58                   -1.08439   1.07123   0.16145
  59                   -1.10190   1.08388   0.17234
  60                   -1.11903   1.09625   0.18285
  61                   -1.13581   1.10810   0.19279
  62                   -1.15225   1.11930   0.20212
  63                   -1.16837   1.12985   0.21086
  64                   -1.18415   1.13973   0.21905
  65                   -1.19960   1.14895   0.22673
  66                   -1.21472   1.15754   0.23398
  67                   -1.22951   1.16550   0.24088
  68                   -1.24399   1.17286   0.24756
  69                   -1.25819   1.17965   0.25415
  70                   -1.27214   1.18589   0.26081
  71                   -1.28588   1.19159   0.26771
  72                   -1.29943   1.19677   0.27501
  73                   -1.31283   1.20141   0.28286
  74                   -1.32612   1.20550   0.29139
  75                   -1.33930   1.20899   0.30070
  76                   -1.35240   1.21182   0.31089
  77                   -1.36540   1.21389   0.32198
  78                   -1.37829   1.21510   0.33400
  79                   -1.39102   1.21529   0.34692
  80                   -1.40354   1.21431   0.36069
  81                   -1.41580   1.21199   0.37523
 --------------------------------------------------------------------------
 
 Total number of points:                   80
 Total number of gradient calculations:    98
 Total number of Hessian calculations:     81
 IRC-IRC-IRC-IRC-IRC-IRC-IRC-IRC-IRC-IRC-IRC-IRC-IRC-IRC-IRC-IRC-IRC-IRC
                          Input orientation:                          
 ---------------------------------------------------------------------
 Center     Atomic      Atomic             Coordinates (Angstroms)
 Number     Number       Type             X           Y           Z
 ---------------------------------------------------------------------
      1          6           0       -0.345730   -1.186451   -0.413476
      2          6           0        0.713017   -0.557543    0.411093
      3          6           0        1.638340    0.431729   -0.222817
      4          8           0       -0.664068   -0.143464    0.507845
      5          8           0       -3.334511    0.751551   -0.299729
      6          8           0        2.828514    0.461254    0.006398
      7          1           0       -3.954425    1.018540    0.394639
      8          1           0       -0.449456   -0.917674   -1.463994
      9          1           0       -0.698705   -2.177679   -0.134757
     10          1           0        1.157553    1.138613   -0.931646
     11          1           0        1.102955   -1.088021    1.278312
     12          1           0       -2.467248    0.678878    0.134503
 ---------------------------------------------------------------------
                    Distance matrix (angstroms):
                    1          2          3          4          5
     1  C    0.000000
     2  C    1.482021   0.000000
     3  C    2.567370   1.495568   0.000000
     4  O    1.427582   1.441245   2.483102   0.000000
     5  O    3.563931   4.312944   4.983719   2.929931   0.000000
     6  O    3.600979   2.382656   1.212404   3.579841   6.177448
     7  H    4.305545   4.926391   5.657263   3.491349   0.968361
     8  H    1.089306   2.235395   2.778543   2.129227   3.530633
     9  H    1.088489   2.217150   3.504075   2.133581   3.943992
    10  H    2.816786   2.208508   1.110532   2.652199   4.552776
    11  H    2.229467   1.088819   2.202196   2.146667   5.056219
    12  H    2.877598   3.423350   4.128512   2.016702   0.972617
                    6          7          8          9         10
     6  O    0.000000
     7  H    6.816858   0.000000
     8  H    3.848191   4.414550   0.000000
     9  H    4.407399   4.593015   1.848406   0.000000
    10  H    2.032450   5.282591   2.663492   3.883107   0.000000
    11  H    2.644914   5.549376   3.155826   2.535764   3.137642
    12  H    5.301779   1.547494   3.029135   3.370484   3.806207
                   11         12
    11  H    0.000000
    12  H    4.144464   0.000000
 Symmetry turned off by external request.
 Stoichiometry    C3H6O3
 Framework group  C1[X(C3H6O3)]
 Deg. of freedom    30
 Full point group                 C1      NOp   1
 Rotational constants (GHZ):           8.4858966           1.2854662           1.1930340

 **********************************************************************

            Population analysis using the SCF Density.

 **********************************************************************

 Alpha  occ. eigenvalues --  -19.21697 -19.18726 -19.15234 -10.30956 -10.28638
 Alpha  occ. eigenvalues --  -10.28491  -1.12401  -1.07893  -1.00610  -0.74944
 Alpha  occ. eigenvalues --   -0.69542  -0.62111  -0.54785  -0.53062  -0.51972
 Alpha  occ. eigenvalues --   -0.47796  -0.44757  -0.43675  -0.42392  -0.38242
 Alpha  occ. eigenvalues --   -0.35378  -0.32889  -0.30566  -0.28755
 Alpha virt. eigenvalues --   -0.07024   0.00300   0.00475   0.01419   0.02652
 Alpha virt. eigenvalues --    0.05009   0.05267   0.06698   0.06976   0.07746
 Alpha virt. eigenvalues --    0.09574   0.10808   0.11234   0.13780   0.15156
 Alpha virt. eigenvalues --    0.16710   0.16725   0.17276   0.18371   0.19671
 Alpha virt. eigenvalues --    0.20672   0.21788   0.22917   0.23989   0.24573
 Alpha virt. eigenvalues --    0.25369   0.27853   0.28761   0.29542   0.30966
 Alpha virt. eigenvalues --    0.31516   0.32891   0.34983   0.36634   0.38625
 Alpha virt. eigenvalues --    0.44838   0.59383   0.60966   0.64133   0.67373
 Alpha virt. eigenvalues --    0.73014   0.73904   0.78505   0.82074   0.86165
 Alpha virt. eigenvalues --    0.92256   0.95175   0.98720   1.01555   1.04980
 Alpha virt. eigenvalues --    1.06660   1.11044   1.12972   1.14789   1.16216
 Alpha virt. eigenvalues --    1.18700   1.21534   1.22778   1.23757   1.27601
 Alpha virt. eigenvalues --    1.28028   1.30840   1.38029   1.40752   1.49812
 Alpha virt. eigenvalues --    1.53445   1.55753   1.57759   1.61118   1.62983
 Alpha virt. eigenvalues --    1.73620   1.74594   1.75496   1.77240   1.77867
 Alpha virt. eigenvalues --    1.79861   1.80047   1.91979   2.00666   2.01637
 Alpha virt. eigenvalues --    2.08651   2.14608   2.19431   2.23178   2.25015
 Alpha virt. eigenvalues --    2.33401   2.41657   2.43006   2.49197   2.59124
 Alpha virt. eigenvalues --    2.66014   2.72168   2.84734   2.89206   2.99710
 Alpha virt. eigenvalues --    3.07924   3.90038   4.12833   4.14405   4.23054
 Alpha virt. eigenvalues --    4.31055   4.48454
          Condensed to atoms (all electrons):
               1          2          3          4          5          6
     1  C    5.653280  -0.361582   0.092745   0.070081  -0.013673   0.009909
     2  C   -0.361582   6.406687  -0.086766   0.074668   0.010090  -0.148222
     3  C    0.092745  -0.086766   5.048191  -0.038652  -0.000486   0.444087
     4  O    0.070081   0.074668  -0.038652   8.338361   0.011821   0.004548
     5  O   -0.013673   0.010090  -0.000486   0.011821   8.566912   0.000007
     6  O    0.009909  -0.148222   0.444087   0.004548   0.000007   8.103462
     7  H    0.002621  -0.002905   0.000537  -0.002129   0.216027   0.000000
     8  H    0.400151  -0.070401   0.029855  -0.041296  -0.000124  -0.000370
     9  H    0.393259  -0.030315  -0.002625  -0.036071   0.000044   0.000525
    10  H    0.040179  -0.199135   0.424666   0.011245  -0.000001  -0.046895
    11  H   -0.003944   0.356406  -0.030260  -0.036466  -0.000020   0.003242
    12  H   -0.006282   0.006982  -0.000458   0.014785   0.186614  -0.000002
               7          8          9         10         11         12
     1  C    0.002621   0.400151   0.393259   0.040179  -0.003944  -0.006282
     2  C   -0.002905  -0.070401  -0.030315  -0.199135   0.356406   0.006982
     3  C    0.000537   0.029855  -0.002625   0.424666  -0.030260  -0.000458
     4  O   -0.002129  -0.041296  -0.036071   0.011245  -0.036466   0.014785
     5  O    0.216027  -0.000124   0.000044  -0.000001  -0.000020   0.186614
     6  O    0.000000  -0.000370   0.000525  -0.046895   0.003242  -0.000002
     7  H    0.337650   0.000001   0.000005   0.000000   0.000001  -0.014716
     8  H    0.000001   0.495111  -0.034764   0.001845   0.000735   0.000244
     9  H    0.000005  -0.034764   0.492570  -0.000001  -0.000348  -0.000050
    10  H    0.000000   0.001845  -0.000001   0.584117   0.003006  -0.000022
    11  H    0.000001   0.000735  -0.000348   0.003006   0.484361  -0.000031
    12  H   -0.014716   0.000244  -0.000050  -0.000022  -0.000031   0.285454
 Mulliken charges:
               1
     1  C   -0.276745
     2  C    0.044493
     3  C    0.119167
     4  O   -0.370895
     5  O   -0.977212
     6  O   -0.370292
     7  H    0.462907
     8  H    0.219012
     9  H    0.217771
    10  H    0.180994
    11  H    0.223318
    12  H    0.527481
 Sum of Mulliken charges =  -0.00000
 Mulliken charges with hydrogens summed into heavy atoms:
               1
     1  C    0.160038
     2  C    0.267811
     3  C    0.300161
     4  O   -0.370895
     5  O    0.013176
     6  O   -0.370292
 APT charges:
               1
     1  C   -0.770115
     2  C   -0.260460
     3  C   -0.481579
     4  O   -0.395046
     5  O   -1.078651
     6  O    0.044091
     7  H    0.885696
     8  H    0.408635
     9  H    0.561972
    10  H    0.322643
    11  H    0.531955
    12  H    0.230859
 Sum of APT charges =  -0.00000
 APT charges with hydrogens summed into heavy atoms:
               1
     1  C    0.200492
     2  C    0.271494
     3  C   -0.158936
     4  O   -0.395046
     5  O    0.037904
     6  O    0.044091
 Electronic spatial extent (au):  <R**2>=            939.6615
 Charge=              0.0000 electrons
 Dipole moment (field-independent basis, Debye):
    X=             -0.7096    Y=             -1.6095    Z=              0.8254  Tot=              1.9430
 Quadrupole moment (field-independent basis, Debye-Ang):
   XX=            -49.5766   YY=            -33.1534   ZZ=            -34.8026
   XY=             -1.7242   XZ=             -6.4825   YZ=              1.6361
 Traceless Quadrupole moment (field-independent basis, Debye-Ang):
   XX=            -10.3991   YY=              6.0241   ZZ=              4.3750
   XY=             -1.7242   XZ=             -6.4825   YZ=              1.6361
 Octapole moment (field-independent basis, Debye-Ang**2):
  XXX=            -40.3333  YYY=             -0.9049  ZZZ=              2.0081  XYY=             -1.8523
  XXY=              2.7571  XXZ=             26.7011  XZZ=              3.2694  YZZ=              0.2582
  YYZ=              3.2488  XYZ=             -8.3610
 Hexadecapole moment (field-independent basis, Debye-Ang**3):
 XXXX=           -954.9785 YYYY=           -151.1569 ZZZZ=            -75.0844 XXXY=            -45.1119
 XXXZ=           -114.2331 YYYX=             21.7426 YYYZ=              5.3448 ZZZX=            -14.1400
 ZZZY=              4.5944 XXYY=           -174.0208 XXZZ=           -165.8963 YYZZ=            -37.8888
 XXYZ=             26.8463 YYXZ=            -11.1176 ZZXY=              5.2915
 N-N= 2.219376499292D+02 E-N=-1.248219181780D+03  KE= 3.404157379079D+02
  Exact polarizability:   0.000   0.000   0.000   0.000   0.000   0.000
 Approx polarizability:  86.808   4.444  55.890   6.443   0.247  54.569

 This type of calculation cannot be archived.


 PENOTUS DIED A HUNDRED YEARS OLD WANTING BUT TWO...
 AND HE USED TO SAY BEFORE HE DIED, HAVING SPENT HIS
 WHOLE LIFE IN VAINLY SEARCHING AFTER THE PHILOSOPHER'S
 STONE, THAT IF HE HAD A MORTAL ENEMY HE DID NOT DARE
 TO ENCOUNTER OPENLY, HE WOULD ADVISE HIM ABOVE ALL
 THINGS TO GIVE HIMSELF UP TO THE STUDY AND PRACTICE
 OF ALCHEMY.  --  NICOLAS LEMERY, M.D.
 "A COURSE OF CHYMISTRY", WALTER KETTILBY, LONDON, 1686
 Job cpu time:       0 days  5 hours 35 minutes 26.4 seconds.
 Elapsed time:       0 days  0 hours 21 minutes 42.2 seconds.
 File lengths (MBytes):  RWF=     28 Int=      0 D2E=      0 Chk=      4 Scr=      1
 Normal termination of Gaussian 16 at Wed Dec 23 22:38:39 2020.
