 Entering Gaussian System, Link 0=g16
 Initial command:
 /apps/cent7/gaussian/g16-B.01/g16-haswell/g16/l1.exe "/scratch/bell/zhao922/YARP/paper-example/KHP-network/pp_0/IRC-folder/Gau-72255.inp" -scrdir="/scratch/bell/zhao922/YARP/paper-example/KHP-network/pp_0/IRC-folder/"
 Entering Link 1 = /apps/cent7/gaussian/g16-B.01/g16-haswell/g16/l1.exe PID=     72256.
  
 Copyright (c) 1988-2017, Gaussian, Inc.  All Rights Reserved.
  
 This is part of the Gaussian(R) 16 program.  It is based on
 the Gaussian(R) 09 system (copyright 2009, Gaussian, Inc.),
 the Gaussian(R) 03 system (copyright 2003, Gaussian, Inc.),
 the Gaussian(R) 98 system (copyright 1998, Gaussian, Inc.),
 the Gaussian(R) 94 system (copyright 1995, Gaussian, Inc.),
 the Gaussian 92(TM) system (copyright 1992, Gaussian, Inc.),
 the Gaussian 90(TM) system (copyright 1990, Gaussian, Inc.),
 the Gaussian 88(TM) system (copyright 1988, Gaussian, Inc.),
 the Gaussian 86(TM) system (copyright 1986, Carnegie Mellon
 University), and the Gaussian 82(TM) system (copyright 1983,
 Carnegie Mellon University). Gaussian is a federally registered
 trademark of Gaussian, Inc.
  
 This software contains proprietary and confidential information,
 including trade secrets, belonging to Gaussian, Inc.
  
 This software is provided under written license and may be
 used, copied, transmitted, or stored only in accord with that
 written license.
  
 The following legend is applicable only to US Government
 contracts under FAR:
  
                    RESTRICTED RIGHTS LEGEND
  
 Use, reproduction and disclosure by the US Government is
 subject to restrictions as set forth in subparagraphs (a)
 and (c) of the Commercial Computer Software - Restricted
 Rights clause in FAR 52.227-19.
  
 Gaussian, Inc.
 340 Quinnipiac St., Bldg. 40, Wallingford CT 06492
  
  
 ---------------------------------------------------------------
 Warning -- This program may not be used in any manner that
 competes with the business of Gaussian, Inc. or will provide
 assistance to any competitor of Gaussian, Inc.  The licensee
 of this program is prohibited from giving any competitor of
 Gaussian, Inc. access to this program.  By using this program,
 the user acknowledges that Gaussian, Inc. is engaged in the
 business of creating and licensing software in the field of
 computational chemistry and represents and warrants to the
 licensee that it is not a competitor of Gaussian, Inc. and that
 it will not use this program in any manner prohibited above.
 ---------------------------------------------------------------
  

 Cite this work as:
 Gaussian 16, Revision B.01,
 M. J. Frisch, G. W. Trucks, H. B. Schlegel, G. E. Scuseria, 
 M. A. Robb, J. R. Cheeseman, G. Scalmani, V. Barone, 
 G. A. Petersson, H. Nakatsuji, X. Li, M. Caricato, A. V. Marenich, 
 J. Bloino, B. G. Janesko, R. Gomperts, B. Mennucci, H. P. Hratchian, 
 J. V. Ortiz, A. F. Izmaylov, J. L. Sonnenberg, D. Williams-Young, 
 F. Ding, F. Lipparini, F. Egidi, J. Goings, B. Peng, A. Petrone, 
 T. Henderson, D. Ranasinghe, V. G. Zakrzewski, J. Gao, N. Rega, 
 G. Zheng, W. Liang, M. Hada, M. Ehara, K. Toyota, R. Fukuda, 
 J. Hasegawa, M. Ishida, T. Nakajima, Y. Honda, O. Kitao, H. Nakai, 
 T. Vreven, K. Throssell, J. A. Montgomery, Jr., J. E. Peralta, 
 F. Ogliaro, M. J. Bearpark, J. J. Heyd, E. N. Brothers, K. N. Kudin, 
 V. N. Staroverov, T. A. Keith, R. Kobayashi, J. Normand, 
 K. Raghavachari, A. P. Rendell, J. C. Burant, S. S. Iyengar, 
 J. Tomasi, M. Cossi, J. M. Millam, M. Klene, C. Adamo, R. Cammi, 
 J. W. Ochterski, R. L. Martin, K. Morokuma, O. Farkas, 
 J. B. Foresman, and D. J. Fox, Gaussian, Inc., Wallingford CT, 2016.
 
 ******************************************
 Gaussian 16:  ES64L-G16RevB.01 20-Dec-2017
                23-Dec-2020 
 ******************************************
 %NProcShared=16
 Will use up to   16 processors via shared memory.
 %Mem=6GB
 ----------------------------------------------------------------------
 # B3LYP/6-31+G* IRC=(CALCALL, maxpoints=40, StepSize=15, maxcyc=100, R
 eport=Cartesians)
 ----------------------------------------------------------------------
 1/6=100,10=4,18=10,26=3,38=1,39=15,42=40,44=3,71=1,129=10,172=1/1,23;
 2/12=2,17=6,18=5,29=1,40=1/2;
 3/5=1,6=6,7=11,11=2,25=1,30=1,71=2,74=-5,140=1/1,2,3;
 4//1;
 5/5=2,38=5/2;
 8/6=4,10=90,11=11/1;
 11/6=1,8=1,9=11,15=111,16=1/1,2,10;
 10/6=1,13=1/2;
 6/7=2,8=2,9=2,10=2,18=1,28=1/1;
 7/10=1,25=1/1,2,3,16;
 1/6=100,10=4,18=10,26=3,39=15,42=40,44=3,71=1,129=10/23(2);
 2/29=1/2;
 99/5=20/99;
 2/29=1/2;
 3/5=1,6=6,7=11,11=2,25=1,30=1,71=2,74=-5,140=1/1,2,3;
 4/5=5,16=3,69=1/1;
 5/5=2,38=5/2;
 8/6=4,10=90,11=11/1;
 11/6=1,8=1,9=11,15=111,16=1/1,2,10;
 10/6=1,13=1/2;
 7/10=1,25=1/1,2,3,16;
 1/6=100,10=4,18=10,26=3,39=15,42=40,44=3,71=1,129=10/23(-8);
 2/29=1/2;
 6/7=2,8=2,9=2,10=2,18=1,19=2,28=1/1;
 99/5=20/99;
 -----------
 pp_20_1 IRC
 -----------
 Symbolic Z-matrix:
 Charge =  0 Multiplicity = 1
 C                     0.40432  -0.83445  -0.22143 
 C                    -0.54156   0.31601  -0.46471 
 C                    -2.01899   0.38333   0.2104 
 O                     1.7058   -0.29546  -0.4819 
 O                     2.0448    0.59877   0.62584 
 O                    -2.10675  -0.79439   0.38829 
 H                     2.89286   0.20011   0.89522 
 H                     0.33554  -1.22948   0.79719 
 H                     0.34816  -1.66542  -0.93805 
 H                    -1.37332   3.7124   -0.42518 
 H                    -0.63665   0.59436  -1.52197 
 H                    -1.77999   3.12737  -0.2107 
 
 IRC-IRC-IRC-IRC-IRC-IRC-IRC-IRC-IRC-IRC-IRC-IRC-IRC-IRC-IRC-IRC-IRC-IRC
 ------------------------------------------------------------------------
 INPUT DATA FOR L123
 ------------------------------------------------------------------------
 GENERAL PARAMETERS:
 Follow reaction path in both directions.
 Maximum points per path      =  40
 Step size                    =   0.150 bohr
 Integration scheme           = HPC                                 
    Redo corrector integration= Yes                                 
    DWI Weight Power          =  2
    DWI will use Hessian update vectors when possible.
    Max correction cycles     = 100
 Initial Hessian              = CalcFC
 Hessian evaluation           = Analytic at all predictor steps
                              = Update at all corrector steps
 Hessian updating method      = Bofill                              
 ------------------------------------------------------------------------
 IRC-IRC-IRC-IRC-IRC-IRC-IRC-IRC-IRC-IRC-IRC-IRC-IRC-IRC-IRC-IRC-IRC-IRC
                          Input orientation:                          
 ---------------------------------------------------------------------
 Center     Atomic      Atomic             Coordinates (Angstroms)
 Number     Number       Type             X           Y           Z
 ---------------------------------------------------------------------
      1          6           0        0.404316   -0.834451   -0.221428
      2          6           0       -0.541562    0.316009   -0.464708
      3          6           0       -2.018986    0.383328    0.210397
      4          8           0        1.705798   -0.295462   -0.481895
      5          8           0        2.044796    0.598772    0.625842
      6          8           0       -2.106745   -0.794391    0.388294
      7          1           0        2.892856    0.200109    0.895218
      8          1           0        0.335540   -1.229476    0.797186
      9          1           0        0.348160   -1.665421   -0.938046
     10          1           0       -1.373320    3.712395   -0.425179
     11          1           0       -0.636649    0.594355   -1.521971
     12          1           0       -1.779985    3.127373   -0.210703
 ---------------------------------------------------------------------
                    Distance matrix (angstroms):
                    1          2          3          4          5
     1  C    0.000000
     2  C    1.509115   0.000000
     3  C    2.746243   1.625755   0.000000
     4  O    1.432553   2.329124   3.848901   0.000000
     5  O    2.337342   2.821082   4.090640   1.463440   0.000000
     6  O    2.584336   2.100095   1.194308   3.942289   4.385502
     7  H    2.917198   3.695681   4.962735   1.884446   0.975039
     8  H    1.094691   2.179497   2.913632   2.094287   2.508666
     9  H    1.098729   2.222998   3.334618   1.981929   3.232784
    10  H    4.886237   3.496973   3.450149   5.054414   4.741604
    11  H    2.194654   1.097417   2.226317   2.713041   3.435588
    12  H    4.524084   3.082528   2.786437   4.892855   4.660749
                    6          7          8          9         10
     6  O    0.000000
     7  H    5.122696   0.000000
     8  H    2.514209   2.931414   0.000000
     9  H    2.923086   3.649183   1.789200   0.000000
    10  H    4.637971   5.681537   5.369960   5.669870   0.000000
    11  H    2.781890   4.296003   3.106445   2.533260   3.386416
    12  H    3.980679   5.623822   4.947062   5.294233   0.744061
                   11         12
    11  H    0.000000
    12  H    3.072917   0.000000
 Symmetry turned off by external request.
 Stoichiometry    C3H6O3
 Framework group  C1[X(C3H6O3)]
 Deg. of freedom    30
 Full point group                 C1      NOp   1
 Rotational constants (GHZ):           6.5633150           1.8417044           1.6301528
 Standard basis: 6-31+G(d) (6D, 7F)
   126 basis functions,   216 primitive gaussians,   126 cartesian basis functions
    24 alpha electrons       24 beta electrons
       nuclear repulsion energy       229.9070204742 Hartrees.
 NAtoms=   12 NActive=   12 NUniq=   12 SFac= 1.00D+00 NAtFMM=   60 NAOKFM=F Big=F
 Integral buffers will be    131072 words long.
 Raffenetti 2 integral format.
 Two-electron integral symmetry is turned off.
 One-electron integrals computed using PRISM.
 NBasis=   126 RedAO= T EigKep=  1.00D-04  NBF=   126
 NBsUse=   126 1.00D-06 EigRej= -1.00D+00 NBFU=   126
 ExpMin= 4.38D-02 ExpMax= 5.48D+03 ExpMxC= 8.25D+02 IAcc=3 IRadAn=         5 AccDes= 0.00D+00
 Harris functional with IExCor=  402 and IRadAn=       5 diagonalized for initial guess.
 HarFok:  IExCor=  402 AccDes= 0.00D+00 IRadAn=         5 IDoV= 1 UseB2=F ITyADJ=14
 ICtDFT=  3500011 ScaDFX=  1.000000  1.000000  1.000000  1.000000
 FoFCou: FMM=F IPFlag=           0 FMFlag=      100000 FMFlg1=           0
         NFxFlg=           0 DoJE=T BraDBF=F KetDBF=T FulRan=T
         wScrn=  0.000000 ICntrl=       500 IOpCl=  0 I1Cent=   200000004 NGrid=           0
         NMat0=    1 NMatS0=      1 NMatT0=    0 NMatD0=    1 NMtDS0=    0 NMtDT0=    0
 Symmetry not used in FoFCou.
 Keep R1 ints in memory in canonical form, NReq=47237243.
 Requested convergence on RMS density matrix=1.00D-08 within 128 cycles.
 Requested convergence on MAX density matrix=1.00D-06.
 Requested convergence on             energy=1.00D-06.
 No special actions if energy rises.
 SCF Done:  E(RB3LYP) =  -343.304135817     A.U. after   15 cycles
            NFock= 15  Conv=0.61D-08     -V/T= 2.0091
 DoSCS=F DFT=T ScalE2(SS,OS)=  1.000000  1.000000
 Range of M.O.s used for correlation:     1   126
 NBasis=   126 NAE=    24 NBE=    24 NFC=     0 NFV=     0
 NROrb=    126 NOA=    24 NOB=    24 NVA=   102 NVB=   102

 **** Warning!!: The largest alpha MO coefficient is  0.32013598D+02


 **** Warning!!: The smallest alpha delta epsilon is  0.85913369D-01

 Symmetrizing basis deriv contribution to polar:
 IMax=3 JMax=2 DiffMx= 0.00D+00
 G2DrvN: will do    13 centers at a time, making    1 passes.
 Calling FoFCou, ICntrl=  3107 FMM=F I1Cent=   0 AccDes= 0.00D+00.
 End of G2Drv F.D. properties file   721 does not exist.
 End of G2Drv F.D. properties file   722 does not exist.
 End of G2Drv F.D. properties file   788 does not exist.
          IDoAtm=111111111111
          Differentiating once with respect to nuclear coordinates.
 Keep R1 ints in memory in canonical form, NReq=47193279.
          There are    39 degrees of freedom in the 1st order CPHF.  IDoFFX=6 NUNeed=     0.
     33 vectors produced by pass  0 Test12= 6.28D-15 2.56D-09 XBig12= 1.61D-01 1.92D-01.
 AX will form    33 AO Fock derivatives at one time.
     33 vectors produced by pass  1 Test12= 6.28D-15 2.56D-09 XBig12= 8.60D-02 7.49D-02.
     33 vectors produced by pass  2 Test12= 6.28D-15 2.56D-09 XBig12= 1.69D-03 1.17D-02.
     33 vectors produced by pass  3 Test12= 6.28D-15 2.56D-09 XBig12= 8.44D-06 3.74D-04.
     32 vectors produced by pass  4 Test12= 6.28D-15 2.56D-09 XBig12= 1.66D-08 1.47D-05.
     27 vectors produced by pass  5 Test12= 6.28D-15 2.56D-09 XBig12= 2.02D-11 5.17D-07.
      6 vectors produced by pass  6 Test12= 6.28D-15 2.56D-09 XBig12= 2.10D-14 1.55D-08.
 InvSVY:  IOpt=1 It=  1 EMax= 2.00D-15
 Solved reduced A of dimension   197 with    33 vectors.
 End of Minotr F.D. properties file   721 does not exist.
 End of Minotr F.D. properties file   722 does not exist.
 End of Minotr F.D. properties file   788 does not exist.

 **********************************************************************

            Population analysis using the SCF Density.

 **********************************************************************

 Alpha  occ. eigenvalues --  -19.25286 -19.24459 -19.23259 -10.30212 -10.27274
 Alpha  occ. eigenvalues --  -10.27191  -1.14374  -1.13763  -0.94681  -0.76896
 Alpha  occ. eigenvalues --   -0.65920  -0.57328  -0.55490  -0.51993  -0.48173
 Alpha  occ. eigenvalues --   -0.47361  -0.46292  -0.44613  -0.42351  -0.40292
 Alpha  occ. eigenvalues --   -0.38089  -0.34252  -0.29424  -0.22916
 Alpha virt. eigenvalues --   -0.14325  -0.03670  -0.02095   0.00520   0.02230
 Alpha virt. eigenvalues --    0.03194   0.04503   0.05891   0.07511   0.08034
 Alpha virt. eigenvalues --    0.08577   0.10684   0.11677   0.12540   0.13051
 Alpha virt. eigenvalues --    0.14752   0.15155   0.16873   0.18353   0.19425
 Alpha virt. eigenvalues --    0.19869   0.20418   0.21351   0.23175   0.24810
 Alpha virt. eigenvalues --    0.26882   0.28058   0.28608   0.29361   0.30229
 Alpha virt. eigenvalues --    0.30780   0.32704   0.34859   0.35445   0.38643
 Alpha virt. eigenvalues --    0.43942   0.64187   0.65155   0.65617   0.67611
 Alpha virt. eigenvalues --    0.69642   0.72280   0.75695   0.77993   0.79451
 Alpha virt. eigenvalues --    0.85933   0.92341   0.96764   1.00393   1.02349
 Alpha virt. eigenvalues --    1.04639   1.09246   1.11693   1.14456   1.15971
 Alpha virt. eigenvalues --    1.16810   1.18242   1.19932   1.22742   1.25626
 Alpha virt. eigenvalues --    1.26681   1.30517   1.32920   1.39750   1.43503
 Alpha virt. eigenvalues --    1.46820   1.51018   1.52439   1.56040   1.61186
 Alpha virt. eigenvalues --    1.64971   1.65337   1.71375   1.79309   1.81118
 Alpha virt. eigenvalues --    1.85075   1.88475   1.94015   1.96019   2.01176
 Alpha virt. eigenvalues --    2.03351   2.11358   2.20790   2.27034   2.31239
 Alpha virt. eigenvalues --    2.34678   2.38558   2.48652   2.52053   2.54186
 Alpha virt. eigenvalues --    2.57419   2.67477   2.69673   2.87309   3.03770
 Alpha virt. eigenvalues --    3.11097   3.95995   4.07687   4.15521   4.23414
 Alpha virt. eigenvalues --    4.32283   4.44046
          Condensed to atoms (all electrons):
               1          2          3          4          5          6
     1  C    5.711603  -0.120250  -0.099963   0.051678  -0.131779  -0.033153
     2  C   -0.120250   6.570322  -0.470677  -0.034957   0.059655  -0.054626
     3  C   -0.099963  -0.470677   6.204836   0.043197   0.006791   0.366185
     4  O    0.051678  -0.034957   0.043197   8.069517   0.113287   0.006670
     5  O   -0.131779   0.059655   0.006791   0.113287   8.290157  -0.000309
     6  O   -0.033153  -0.054626   0.366185   0.006670  -0.000309   7.875500
     7  H    0.012355  -0.006149   0.000826  -0.033923   0.181321  -0.000064
     8  H    0.422160  -0.125914   0.030054  -0.030794   0.001365   0.007176
     9  H    0.411895  -0.041409  -0.020074  -0.055136   0.008712  -0.011026
    10  H    0.012244   0.007767  -0.011459  -0.000070   0.000007   0.000063
    11  H   -0.023261   0.288881   0.003719   0.005039   0.000027   0.001668
    12  H    0.016657  -0.002386  -0.000990  -0.000043   0.000028   0.000115
               7          8          9         10         11         12
     1  C    0.012355   0.422160   0.411895   0.012244  -0.023261   0.016657
     2  C   -0.006149  -0.125914  -0.041409   0.007767   0.288881  -0.002386
     3  C    0.000826   0.030054  -0.020074  -0.011459   0.003719  -0.000990
     4  O   -0.033923  -0.030794  -0.055136  -0.000070   0.005039  -0.000043
     5  O    0.181321   0.001365   0.008712   0.000007   0.000027   0.000028
     6  O   -0.000064   0.007176  -0.011026   0.000063   0.001668   0.000115
     7  H    0.365277   0.001181  -0.000078   0.000000  -0.000000   0.000000
     8  H    0.001181   0.498397  -0.030613  -0.000001   0.003790  -0.000002
     9  H   -0.000078  -0.030613   0.522025   0.000000  -0.005035  -0.000001
    10  H    0.000000  -0.000001   0.000000   0.614605  -0.000012   0.389910
    11  H   -0.000000   0.003790  -0.005035  -0.000012   0.496785  -0.000133
    12  H    0.000000  -0.000002  -0.000001   0.389910  -0.000133   0.560712
 Mulliken charges:
               1
     1  C   -0.230185
     2  C   -0.070256
     3  C   -0.052445
     4  O   -0.134465
     5  O   -0.529261
     6  O   -0.158200
     7  H    0.479253
     8  H    0.223204
     9  H    0.220741
    10  H   -0.013054
    11  H    0.228533
    12  H    0.036134
 Sum of Mulliken charges =  -0.00000
 Mulliken charges with hydrogens summed into heavy atoms:
               1
     1  C    0.213760
     2  C    0.158278
     3  C   -0.029365
     4  O   -0.134465
     5  O   -0.050008
     6  O   -0.158200
 APT charges:
               1
     1  C   -0.712252
     2  C   -0.239684
     3  C   -0.173936
     4  O   -0.157172
     5  O   -0.848165
     6  O   -0.071461
     7  H    0.813086
     8  H    0.392757
     9  H    0.491636
    10  H    0.467688
    11  H    0.481614
    12  H   -0.444112
 Sum of APT charges =  -0.00000
 APT charges with hydrogens summed into heavy atoms:
               1
     1  C    0.172141
     2  C    0.241930
     3  C   -0.150360
     4  O   -0.157172
     5  O   -0.035079
     6  O   -0.071461
 Electronic spatial extent (au):  <R**2>=            757.6691
 Charge=             -0.0000 electrons
 Dipole moment (field-independent basis, Debye):
    X=              1.8478    Y=             -1.6950    Z=             -0.1344  Tot=              2.5111
 Quadrupole moment (field-independent basis, Debye-Ang):
   XX=            -37.6076   YY=            -38.9264   ZZ=            -35.1312
   XY=             -1.2535   XZ=              4.5130   YZ=             -0.4504
 Traceless Quadrupole moment (field-independent basis, Debye-Ang):
   XX=             -0.3859   YY=             -1.7047   ZZ=              2.0906
   XY=             -1.2535   XZ=              4.5130   YZ=             -0.4504
 Octapole moment (field-independent basis, Debye-Ang**2):
  XXX=             51.5921  YYY=            -10.3527  ZZZ=              2.1311  XYY=              7.6315
  XXY=             -5.0177  XXZ=             12.8074  XZZ=              5.3768  YZZ=             -2.8654
  YYZ=             -1.3780  XYZ=             -0.9917
 Hexadecapole moment (field-independent basis, Debye-Ang**3):
 XXXX=           -575.3466 YYYY=           -253.4760 ZZZZ=            -88.7856 XXXY=             24.4755
 XXXZ=             41.6039 YYYX=             17.8331 YYYZ=              0.1332 ZZZX=              4.7846
 ZZZY=              0.8205 XXYY=           -167.0624 XXZZ=           -111.3523 YYZZ=            -57.1560
 XXYZ=              1.1237 YYXZ=              0.6828 ZZXY=              5.4772
 N-N= 2.299070204742D+02 E-N=-1.263468459546D+03  KE= 3.402156634988D+02
  Exact polarizability:   0.000   0.000   0.000   0.000   0.000   0.000
 Approx polarizability: 159.554  17.750  83.691 -29.644  -3.804  73.546
 Calling FoFJK, ICntrl=    100127 FMM=F ISym2X=0 I1Cent= 0 IOpClX= 0 NMat=1 NMatS=1 NMatT=0.
 -------------------------------------------------------------------
 Center     Atomic                   Forces (Hartrees/Bohr)
 Number     Number              X              Y              Z
 -------------------------------------------------------------------
      1        6          -0.000001165   -0.000001507   -0.000000619
      2        6           0.000000478    0.000001139    0.000000098
      3        6          -0.000002220   -0.000002958   -0.000005206
      4        8          -0.000000357    0.000000240    0.000000068
      5        8           0.000000035    0.000000410    0.000000659
      6        8           0.000002407    0.000001832    0.000003181
      7        1          -0.000000220    0.000000272    0.000000450
      8        1           0.000000018    0.000000035    0.000000074
      9        1           0.000000621    0.000000304    0.000000272
     10        1          -0.000000330   -0.000000122   -0.000000085
     11        1           0.000000591    0.000000412   -0.000000025
     12        1           0.000000143   -0.000000057    0.000001132
 -------------------------------------------------------------------
 Cartesian Forces:  Max     0.000005206 RMS     0.000001387
 IRC-IRC-IRC-IRC-IRC-IRC-IRC-IRC-IRC-IRC-IRC-IRC-IRC-IRC-IRC-IRC-IRC-IRC
          ******** Start new reaction path calculation ********
 Supplied step size of   0.1500 bohr.
    Integration on MW PES will use step size of   0.3111 sqrt(amu)*bohr.
 Point Number:   0          Path Number:   1
 Calculating another point on the path.
 IRC-IRC-IRC-IRC-IRC-IRC-IRC-IRC-IRC-IRC-IRC-IRC-IRC-IRC-IRC-IRC-IRC-IRC
                          Input orientation:                          
 ---------------------------------------------------------------------
 Center     Atomic      Atomic             Coordinates (Angstroms)
 Number     Number       Type             X           Y           Z
 ---------------------------------------------------------------------
      1          6           0        0.398097   -0.780613   -0.242771
      2          6           0       -0.532614    0.384085   -0.476598
      3          6           0       -2.015689    0.420852    0.171824
      4          8           0        1.702756   -0.244176   -0.497549
      5          8           0        2.042340    0.649829    0.610630
      6          8           0       -2.119003   -0.745299    0.392192
      7          1           0        2.889995    0.249970    0.879632
      8          1           0        0.325120   -1.179813    0.774492
      9          1           0        0.342246   -1.609541   -0.962138
     10          1           0       -1.374905    3.762194   -0.437983
     11          1           0       -0.602620    0.700110   -1.525419
     12          1           0       -1.784981    3.177896   -0.228112
 ---------------------------------------------------------------------
                    Distance matrix (angstroms):
                    1          2          3          4          5
     1  C    0.000000
     2  C    1.509112   0.000000
     3  C    2.727960   1.619047   0.000000
     4  O    1.433461   2.322075   3.836294   0.000000
     5  O    2.340511   2.807681   4.088102   1.463770   0.000000
     6  O    2.596193   2.132354   1.191278   3.955832   4.394414
     7  H    2.920864   3.683965   4.959428   1.884236   0.975074
     8  H    1.095222   2.178695   2.899090   2.095563   2.514614
     9  H    1.098968   2.230621   3.311830   1.982688   3.235532
    10  H    4.880445   3.481748   3.456449   5.052381   4.739617
    11  H    2.199809   1.097633   2.226068   2.694987   3.400154
    12  H    4.520602   3.071734   2.795437   4.893617   4.662939
                    6          7          8          9         10
     6  O    0.000000
     7  H    5.130129   0.000000
     8  H    2.511712   2.938353   0.000000
     9  H    2.939196   3.652523   1.789090   0.000000
    10  H    4.643315   5.679894   5.365036   5.663822   0.000000
    11  H    2.840045   4.264418   3.111977   2.558231   3.339955
    12  H    3.985951   5.626300   4.944429   5.289938   0.744052
                   11         12
    11  H    0.000000
    12  H    3.036512   0.000000
 Symmetry turned off by external request.
 Stoichiometry    C3H6O3
 Framework group  C1[X(C3H6O3)]
 Deg. of freedom    30
 Full point group                 C1      NOp   1
 Rotational constants (GHZ):           6.5563283           1.8393757           1.6294874
 Standard basis: 6-31+G(d) (6D, 7F)
   126 basis functions,   216 primitive gaussians,   126 cartesian basis functions
    24 alpha electrons       24 beta electrons
       nuclear repulsion energy       229.8387907555 Hartrees.
 NAtoms=   12 NActive=   12 NUniq=   12 SFac= 1.00D+00 NAtFMM=   60 NAOKFM=F Big=F
 Integral buffers will be    131072 words long.
 Raffenetti 2 integral format.
 Two-electron integral symmetry is turned off.
 One-electron integrals computed using PRISM.
 NBasis=   126 RedAO= T EigKep=  1.00D-04  NBF=   126
 NBsUse=   126 1.00D-06 EigRej= -1.00D+00 NBFU=   126
 Initial guess from the checkpoint file:  "/scratch/bell/zhao922/YARP/paper-example/KHP-network/pp_0/IRC-folder/Gau-72256.chk"
 B after Tr=    -0.003844    0.099588   -0.029236
         Rot=    1.000000   -0.000544    0.000075    0.000093 Ang=  -0.06 deg.
 ExpMin= 4.38D-02 ExpMax= 5.48D+03 ExpMxC= 8.25D+02 IAcc=3 IRadAn=         5 AccDes= 0.00D+00
 Harris functional with IExCor=  402 and IRadAn=       5 diagonalized for initial guess.
 HarFok:  IExCor=  402 AccDes= 0.00D+00 IRadAn=         5 IDoV= 1 UseB2=F ITyADJ=14
 ICtDFT=  3500011 ScaDFX=  1.000000  1.000000  1.000000  1.000000
 FoFCou: FMM=F IPFlag=           0 FMFlag=      100000 FMFlg1=           0
         NFxFlg=           0 DoJE=T BraDBF=F KetDBF=T FulRan=T
         wScrn=  0.000000 ICntrl=       500 IOpCl=  0 I1Cent=   200000004 NGrid=           0
         NMat0=    1 NMatS0=      1 NMatT0=    0 NMatD0=    1 NMtDS0=    0 NMtDT0=    0
 Symmetry not used in FoFCou.
 Keep R1 ints in memory in canonical form, NReq=47237243.
 Requested convergence on RMS density matrix=1.00D-08 within 128 cycles.
 Requested convergence on MAX density matrix=1.00D-06.
 Requested convergence on             energy=1.00D-06.
 No special actions if energy rises.
 SCF Done:  E(RB3LYP) =  -343.304512715     A.U. after   14 cycles
            NFock= 14  Conv=0.26D-08     -V/T= 2.0091
 DoSCS=F DFT=T ScalE2(SS,OS)=  1.000000  1.000000
 Range of M.O.s used for correlation:     1   126
 NBasis=   126 NAE=    24 NBE=    24 NFC=     0 NFV=     0
 NROrb=    126 NOA=    24 NOB=    24 NVA=   102 NVB=   102

 **** Warning!!: The largest alpha MO coefficient is  0.28452815D+02


 **** Warning!!: The smallest alpha delta epsilon is  0.80352973D-01

 Symmetrizing basis deriv contribution to polar:
 IMax=3 JMax=2 DiffMx= 0.00D+00
 G2DrvN: will do    13 centers at a time, making    1 passes.
 Calling FoFCou, ICntrl=  3107 FMM=F I1Cent=   0 AccDes= 0.00D+00.
 End of G2Drv F.D. properties file   721 does not exist.
 End of G2Drv F.D. properties file   722 does not exist.
 End of G2Drv F.D. properties file   788 does not exist.
          IDoAtm=111111111111
          Differentiating once with respect to nuclear coordinates.
 Keep R1 ints in memory in canonical form, NReq=47193279.
          There are    39 degrees of freedom in the 1st order CPHF.  IDoFFX=6 NUNeed=     0.
     33 vectors produced by pass  0 Test12= 6.28D-15 2.56D-09 XBig12= 1.61D-01 1.95D-01.
 AX will form    33 AO Fock derivatives at one time.
     33 vectors produced by pass  1 Test12= 6.28D-15 2.56D-09 XBig12= 8.76D-02 7.04D-02.
     33 vectors produced by pass  2 Test12= 6.28D-15 2.56D-09 XBig12= 1.73D-03 1.15D-02.
     33 vectors produced by pass  3 Test12= 6.28D-15 2.56D-09 XBig12= 8.25D-06 3.63D-04.
     32 vectors produced by pass  4 Test12= 6.28D-15 2.56D-09 XBig12= 1.54D-08 1.42D-05.
     27 vectors produced by pass  5 Test12= 6.28D-15 2.56D-09 XBig12= 1.86D-11 5.18D-07.
      6 vectors produced by pass  6 Test12= 6.28D-15 2.56D-09 XBig12= 1.90D-14 1.36D-08.
 InvSVY:  IOpt=1 It=  1 EMax= 2.78D-15
 Solved reduced A of dimension   197 with    33 vectors.
 End of Minotr F.D. properties file   721 does not exist.
 End of Minotr F.D. properties file   722 does not exist.
 End of Minotr F.D. properties file   788 does not exist.
 Calling FoFJK, ICntrl=    100127 FMM=F ISym2X=0 I1Cent= 0 IOpClX= 0 NMat=1 NMatS=1 NMatT=0.
 -------------------------------------------------------------------
 Center     Atomic                   Forces (Hartrees/Bohr)
 Number     Number              X              Y              Z
 -------------------------------------------------------------------
      1        6          -0.000529273    0.000473245   -0.001137836
      2        6           0.000872228    0.002781599    0.000274868
      3        6           0.001891642   -0.004079937   -0.004150859
      4        8          -0.000173415   -0.000286445    0.000009429
      5        8          -0.000042522   -0.000269802    0.000041489
      6        8          -0.002343842    0.000746886    0.004251803
      7        1          -0.000006137   -0.000031206   -0.000003620
      8        1          -0.000156186    0.000000741   -0.000087966
      9        1          -0.000074193    0.000074792   -0.000116546
     10        1          -0.000010909   -0.000050147    0.000043479
     11        1           0.000594709    0.000632823    0.000910564
     12        1          -0.000022103    0.000007449   -0.000034806
 -------------------------------------------------------------------
 Cartesian Forces:  Max     0.004251803 RMS     0.001431699
 IRC-IRC-IRC-IRC-IRC-IRC-IRC-IRC-IRC-IRC-IRC-IRC-IRC-IRC-IRC-IRC-IRC-IRC
 Pt  1 Step number   1 out of a maximum of 100
 Modified Bulirsch-Stoer Extrapolation Cycles:
    EPS =    0.000010000000000
      PEZero:  N= 2 I= 1 D=  8.10D-04 Err=  1.21D-03
      PEZero:  N= 3 I= 2 D=  8.10D-04 Err=  8.09D-04
      PEZero:  N= 3 I= 1 D=  1.62D-03 Err=  2.35D-07
 Maximum DWI energy   std dev =  0.000002667 at pt    53
 Maximum DWI gradient std dev =  0.093528111 at pt    41
 CORRECTOR INTEGRATION CONVERGENCE:
   Recorrection delta-x convergence threshold:    0.010000
   Delta-x Convergence NOT Met
 IRC-IRC-IRC-IRC-IRC-IRC-IRC-IRC-IRC-IRC-IRC-IRC-IRC-IRC-IRC-IRC-IRC-IRC
                          Input orientation:                          
 ---------------------------------------------------------------------
 Center     Atomic      Atomic             Coordinates (Angstroms)
 Number     Number       Type             X           Y           Z
 ---------------------------------------------------------------------
      1          6           0        0.398149   -0.780391   -0.242784
      2          6           0       -0.533694    0.383661   -0.476406
      3          6           0       -2.014627    0.420443    0.171657
      4          8           0        1.702759   -0.244223   -0.497485
      5          8           0        2.042345    0.649860    0.610618
      6          8           0       -2.119017   -0.744927    0.392009
      7          1           0        2.890039    0.250068    0.879588
      8          1           0        0.324978   -1.179412    0.774585
      9          1           0        0.342272   -1.609477   -0.961954
     10          1           0       -1.374979    3.762326   -0.438073
     11          1           0       -0.602824    0.700883   -1.523722
     12          1           0       -1.784935    3.178060   -0.228014
 ---------------------------------------------------------------------
                    Distance matrix (angstroms):
                    1          2          3          4          5
     1  C    0.000000
     2  C    1.509280   0.000000
     3  C    2.726766   1.616943   0.000000
     4  O    1.433302   2.323016   3.835165   0.000000
     5  O    2.340362   2.808640   4.087095   1.463761   0.000000
     6  O    2.596217   2.130986   1.190604   3.955739   4.394331
     7  H    2.920801   3.684903   4.958421   1.884221   0.975071
     8  H    1.095268   2.178415   2.897725   2.095476   2.514452
     9  H    1.098959   2.230621   3.310683   1.982567   3.235403
    10  H    4.880410   3.482042   3.456748   5.052568   4.739758
    11  H    2.199301   1.096486   2.223994   2.694829   3.399255
    12  H    4.520554   3.071803   2.795881   4.893736   4.662958
                    6          7          8          9         10
     6  O    0.000000
     7  H    5.130144   0.000000
     8  H    2.511624   2.938362   0.000000
     9  H    2.939150   3.652438   1.789085   0.000000
    10  H    4.643055   5.680015   5.364809   5.663892   0.000000
    11  H    2.838879   4.263711   3.111036   2.558624   3.338756
    12  H    3.985708   5.626305   4.944139   5.290009   0.744013
                   11         12
    11  H    0.000000
    12  H    3.035235   0.000000
 Symmetry turned off by external request.
 Stoichiometry    C3H6O3
 Framework group  C1[X(C3H6O3)]
 Deg. of freedom    30
 Full point group                 C1      NOp   1
 Rotational constants (GHZ):           6.5588152           1.8396939           1.6297674
 Standard basis: 6-31+G(d) (6D, 7F)
   126 basis functions,   216 primitive gaussians,   126 cartesian basis functions
    24 alpha electrons       24 beta electrons
       nuclear repulsion energy       229.8814743305 Hartrees.
 NAtoms=   12 NActive=   12 NUniq=   12 SFac= 1.00D+00 NAtFMM=   60 NAOKFM=F Big=F
 Integral buffers will be    131072 words long.
 Raffenetti 2 integral format.
 Two-electron integral symmetry is turned off.
 One-electron integrals computed using PRISM.
 NBasis=   126 RedAO= T EigKep=  1.01D-04  NBF=   126
 NBsUse=   126 1.00D-06 EigRej= -1.00D+00 NBFU=   126
 Initial guess from the checkpoint file:  "/scratch/bell/zhao922/YARP/paper-example/KHP-network/pp_0/IRC-folder/Gau-72256.chk"
 B after Tr=    -0.000006    0.000032    0.000037
         Rot=    1.000000   -0.000006   -0.000001    0.000000 Ang=  -0.00 deg.
 ExpMin= 4.38D-02 ExpMax= 5.48D+03 ExpMxC= 8.25D+02 IAcc=3 IRadAn=         5 AccDes= 0.00D+00
 Harris functional with IExCor=  402 and IRadAn=       5 diagonalized for initial guess.
 HarFok:  IExCor=  402 AccDes= 0.00D+00 IRadAn=         5 IDoV= 1 UseB2=F ITyADJ=14
 ICtDFT=  3500011 ScaDFX=  1.000000  1.000000  1.000000  1.000000
 FoFCou: FMM=F IPFlag=           0 FMFlag=      100000 FMFlg1=           0
         NFxFlg=           0 DoJE=T BraDBF=F KetDBF=T FulRan=T
         wScrn=  0.000000 ICntrl=       500 IOpCl=  0 I1Cent=   200000004 NGrid=           0
         NMat0=    1 NMatS0=      1 NMatT0=    0 NMatD0=    1 NMtDS0=    0 NMtDT0=    0
 Symmetry not used in FoFCou.
 Keep R1 ints in memory in canonical form, NReq=47237243.
 Requested convergence on RMS density matrix=1.00D-08 within 128 cycles.
 Requested convergence on MAX density matrix=1.00D-06.
 Requested convergence on             energy=1.00D-06.
 No special actions if energy rises.
 SCF Done:  E(RB3LYP) =  -343.304517397     A.U. after   11 cycles
            NFock= 11  Conv=0.52D-08     -V/T= 2.0091
 DoSCS=F DFT=T ScalE2(SS,OS)=  1.000000  1.000000
 Range of M.O.s used for correlation:     1   126
 NBasis=   126 NAE=    24 NBE=    24 NFC=     0 NFV=     0
 NROrb=    126 NOA=    24 NOB=    24 NVA=   102 NVB=   102

 **** Warning!!: The largest alpha MO coefficient is  0.27166865D+02


 **** Warning!!: The smallest alpha delta epsilon is  0.80121833D-01

 Symmetrizing basis deriv contribution to polar:
 IMax=3 JMax=2 DiffMx= 0.00D+00
 Calling FoFJK, ICntrl=      2127 FMM=F ISym2X=0 I1Cent= 0 IOpClX= 0 NMat=1 NMatS=1 NMatT=0.
 -------------------------------------------------------------------
 Center     Atomic                   Forces (Hartrees/Bohr)
 Number     Number              X              Y              Z
 -------------------------------------------------------------------
      1        6          -0.000716427    0.000436295   -0.001095201
      2        6           0.001452356    0.002668238    0.000768193
      3        6           0.001664397   -0.002873559   -0.004354162
      4        8          -0.000194004   -0.000262856   -0.000001683
      5        8          -0.000045430   -0.000253505    0.000044109
      6        8          -0.002480256   -0.000551634    0.004614785
      7        1          -0.000006985   -0.000030882   -0.000004926
      8        1          -0.000132537   -0.000020974   -0.000108757
      9        1          -0.000055429    0.000061136   -0.000125936
     10        1           0.000007150   -0.000030312    0.000035959
     11        1           0.000548105    0.000875647    0.000254270
     12        1          -0.000040939   -0.000017594   -0.000026651
 -------------------------------------------------------------------
 Cartesian Forces:  Max     0.004614785 RMS     0.001402635
 IRC-IRC-IRC-IRC-IRC-IRC-IRC-IRC-IRC-IRC-IRC-IRC-IRC-IRC-IRC-IRC-IRC-IRC
 Error in corrector energy =           0.0000000336
 Magnitude of corrector gradient =     0.0084146113
 Magnitude of analytic gradient =      0.0084158102
 Magnitude of difference =             0.0000215163
 Angle between gradients (degrees)=    0.1463
 Pt  1 Step number   2 out of a maximum of 100
 Modified Bulirsch-Stoer Extrapolation Cycles:
    EPS =    0.000010000000000
      PEZero:  N= 2 I= 1 D=  8.10D-04 Err=  1.22D-03
      PEZero:  N= 3 I= 2 D=  8.10D-04 Err=  8.08D-04
      PEZero:  N= 3 I= 1 D=  1.62D-03 Err=  4.43D-06
 Maximum DWI energy   std dev =  0.000002833 at pt    58
 Maximum DWI gradient std dev =  0.218467886 at pt     4
 CORRECTOR INTEGRATION CONVERGENCE:
   Recorrection delta-x convergence threshold:    0.010000
   Delta-x Convergence Met
 Point Number:   1          Path Number:   1
   CHANGE IN THE REACTION COORDINATE =    0.31066
   NET REACTION COORDINATE UP TO THIS POINT =    0.31066
  # OF POINTS ALONG THE PATH =   1
  # OF STEPS =   2

 Calculating another point on the path.
 IRC-IRC-IRC-IRC-IRC-IRC-IRC-IRC-IRC-IRC-IRC-IRC-IRC-IRC-IRC-IRC-IRC-IRC
                          Input orientation:                          
 ---------------------------------------------------------------------
 Center     Atomic      Atomic             Coordinates (Angstroms)
 Number     Number       Type             X           Y           Z
 ---------------------------------------------------------------------
      1          6           0        0.394148   -0.777975   -0.248753
      2          6           0       -0.526147    0.397850   -0.472180
      3          6           0       -2.005098    0.405022    0.148067
      4          8           0        1.701913   -0.245320   -0.497433
      5          8           0        2.042137    0.648896    0.610779
      6          8           0       -2.129067   -0.747241    0.410696
      7          1           0        2.889608    0.248207    0.879207
      8          1           0        0.316238   -1.180778    0.767502
      9          1           0        0.338692   -1.605489   -0.970128
     10          1           0       -1.374492    3.760428   -0.435861
     11          1           0       -0.567215    0.758516   -1.506947
     12          1           0       -1.787642    3.177075   -0.229706
 ---------------------------------------------------------------------
                    Distance matrix (angstroms):
                    1          2          3          4          5
     1  C    0.000000
     2  C    1.509777   0.000000
     3  C    2.704316   1.603762   0.000000
     4  O    1.433810   2.319171   3.818578   0.000000
     5  O    2.343208   2.798554   4.080892   1.464072   0.000000
     6  O    2.608146   2.158716   1.188298   3.969008   4.403200
     7  H    2.924494   3.676414   4.951494   1.883965   0.975096
     8  H    1.095945   2.176807   2.878725   2.096482   2.520119
     9  H    1.099198   2.238139   3.284184   1.982894   3.237783
    10  H    4.874444   3.468132   3.463725   5.051146   4.738190
    11  H    2.206371   1.096590   2.220706   2.678758   3.362364
    12  H    4.516967   3.061741   2.806115   4.895045   4.665331
                    6          7          8          9         10
     6  O    0.000000
     7  H    5.137851   0.000000
     8  H    2.508940   2.945626   0.000000
     9  H    2.955181   3.655598   1.788921   0.000000
    10  H    4.648132   5.678702   5.359307   5.658048   0.000000
    11  H    2.895521   4.231284   3.116804   2.587926   3.287917
    12  H    3.990858   5.628910   4.940812   5.286061   0.743972
                   11         12
    11  H    0.000000
    12  H    2.995032   0.000000
 Symmetry turned off by external request.
 Stoichiometry    C3H6O3
 Framework group  C1[X(C3H6O3)]
 Deg. of freedom    30
 Full point group                 C1      NOp   1
 Rotational constants (GHZ):           6.5551353           1.8384061           1.6298672
 Standard basis: 6-31+G(d) (6D, 7F)
   126 basis functions,   216 primitive gaussians,   126 cartesian basis functions
    24 alpha electrons       24 beta electrons
       nuclear repulsion energy       229.8872313178 Hartrees.
 NAtoms=   12 NActive=   12 NUniq=   12 SFac= 1.00D+00 NAtFMM=   60 NAOKFM=F Big=F
 Integral buffers will be    131072 words long.
 Raffenetti 2 integral format.
 Two-electron integral symmetry is turned off.
 One-electron integrals computed using PRISM.
 NBasis=   126 RedAO= T EigKep=  1.01D-04  NBF=   126
 NBsUse=   126 1.00D-06 EigRej= -1.00D+00 NBFU=   126
 Initial guess from the checkpoint file:  "/scratch/bell/zhao922/YARP/paper-example/KHP-network/pp_0/IRC-folder/Gau-72256.chk"
 B after Tr=     0.000381    0.001053   -0.000081
         Rot=    1.000000   -0.000577    0.000067    0.000096 Ang=  -0.07 deg.
 ExpMin= 4.38D-02 ExpMax= 5.48D+03 ExpMxC= 8.25D+02 IAcc=3 IRadAn=         5 AccDes= 0.00D+00
 Harris functional with IExCor=  402 and IRadAn=       5 diagonalized for initial guess.
 HarFok:  IExCor=  402 AccDes= 0.00D+00 IRadAn=         5 IDoV= 1 UseB2=F ITyADJ=14
 ICtDFT=  3500011 ScaDFX=  1.000000  1.000000  1.000000  1.000000
 FoFCou: FMM=F IPFlag=           0 FMFlag=      100000 FMFlg1=           0
         NFxFlg=           0 DoJE=T BraDBF=F KetDBF=T FulRan=T
         wScrn=  0.000000 ICntrl=       500 IOpCl=  0 I1Cent=   200000004 NGrid=           0
         NMat0=    1 NMatS0=      1 NMatT0=    0 NMatD0=    1 NMtDS0=    0 NMtDT0=    0
 Symmetry not used in FoFCou.
 Keep R1 ints in memory in canonical form, NReq=47237243.
 Requested convergence on RMS density matrix=1.00D-08 within 128 cycles.
 Requested convergence on MAX density matrix=1.00D-06.
 Requested convergence on             energy=1.00D-06.
 No special actions if energy rises.
 SCF Done:  E(RB3LYP) =  -343.305765022     A.U. after   14 cycles
            NFock= 14  Conv=0.28D-08     -V/T= 2.0091
 DoSCS=F DFT=T ScalE2(SS,OS)=  1.000000  1.000000
 Range of M.O.s used for correlation:     1   126
 NBasis=   126 NAE=    24 NBE=    24 NFC=     0 NFV=     0
 NROrb=    126 NOA=    24 NOB=    24 NVA=   102 NVB=   102

 **** Warning!!: The largest alpha MO coefficient is  0.35002232D+02


 **** Warning!!: The smallest alpha delta epsilon is  0.74910057D-01

 Symmetrizing basis deriv contribution to polar:
 IMax=3 JMax=2 DiffMx= 0.00D+00
 G2DrvN: will do    13 centers at a time, making    1 passes.
 Calling FoFCou, ICntrl=  3107 FMM=F I1Cent=   0 AccDes= 0.00D+00.
 End of G2Drv F.D. properties file   721 does not exist.
 End of G2Drv F.D. properties file   722 does not exist.
 End of G2Drv F.D. properties file   788 does not exist.
          IDoAtm=111111111111
          Differentiating once with respect to nuclear coordinates.
 Keep R1 ints in memory in canonical form, NReq=47193279.
          There are    39 degrees of freedom in the 1st order CPHF.  IDoFFX=6 NUNeed=     0.
     33 vectors produced by pass  0 Test12= 6.28D-15 2.56D-09 XBig12= 1.58D-01 1.94D-01.
 AX will form    33 AO Fock derivatives at one time.
     33 vectors produced by pass  1 Test12= 6.28D-15 2.56D-09 XBig12= 8.68D-02 6.83D-02.
     33 vectors produced by pass  2 Test12= 6.28D-15 2.56D-09 XBig12= 1.74D-03 1.10D-02.
     33 vectors produced by pass  3 Test12= 6.28D-15 2.56D-09 XBig12= 7.80D-06 3.57D-04.
     32 vectors produced by pass  4 Test12= 6.28D-15 2.56D-09 XBig12= 1.39D-08 1.36D-05.
     27 vectors produced by pass  5 Test12= 6.28D-15 2.56D-09 XBig12= 1.70D-11 5.35D-07.
      7 vectors produced by pass  6 Test12= 6.28D-15 2.56D-09 XBig12= 1.72D-14 1.28D-08.
 InvSVY:  IOpt=1 It=  1 EMax= 1.78D-15
 Solved reduced A of dimension   198 with    33 vectors.
 End of Minotr F.D. properties file   721 does not exist.
 End of Minotr F.D. properties file   722 does not exist.
 End of Minotr F.D. properties file   788 does not exist.
 Calling FoFJK, ICntrl=    100127 FMM=F ISym2X=0 I1Cent= 0 IOpClX= 0 NMat=1 NMatS=1 NMatT=0.
 -------------------------------------------------------------------
 Center     Atomic                   Forces (Hartrees/Bohr)
 Number     Number              X              Y              Z
 -------------------------------------------------------------------
      1        6          -0.001339240    0.001076843   -0.002399482
      2        6           0.001699746    0.005808855    0.000961048
      3        6           0.004877193   -0.007950614   -0.009300383
      4        8          -0.000440659   -0.000653437    0.000086262
      5        8          -0.000116958   -0.000503290    0.000064285
      6        8          -0.005377340    0.000546138    0.009464945
      7        1          -0.000011473   -0.000058681   -0.000017009
      8        1          -0.000319258   -0.000004255   -0.000206075
      9        1          -0.000139432    0.000154466   -0.000257995
     10        1          -0.000005553   -0.000073953    0.000076301
     11        1           0.001243599    0.001655381    0.001588978
     12        1          -0.000070624    0.000002546   -0.000060876
 -------------------------------------------------------------------
 Cartesian Forces:  Max     0.009464945 RMS     0.003102648
 IRC-IRC-IRC-IRC-IRC-IRC-IRC-IRC-IRC-IRC-IRC-IRC-IRC-IRC-IRC-IRC-IRC-IRC
 Pt  2 Step number   1 out of a maximum of 100
 Modified Bulirsch-Stoer Extrapolation Cycles:
    EPS =    0.000010000000000
      PEZero:  N= 2 I= 1 D=  1.62D-03 Err=  1.31D-04
      PEZero:  N= 3 I= 2 D=  1.62D-03 Err=  8.73D-05
      PEZero:  N= 3 I= 1 D=  3.24D-03 Err=  3.93D-07
 Maximum DWI energy   std dev =  0.000006258 at pt    69
 Maximum DWI gradient std dev =  0.058004745 at pt    11
 CORRECTOR INTEGRATION CONVERGENCE:
   Recorrection delta-x convergence threshold:    0.010000
   Delta-x Convergence Met
 Point Number:   2          Path Number:   1
   CHANGE IN THE REACTION COORDINATE =    0.31075
   NET REACTION COORDINATE UP TO THIS POINT =    0.62141
  # OF POINTS ALONG THE PATH =   2
  # OF STEPS =   1

 Calculating another point on the path.
 IRC-IRC-IRC-IRC-IRC-IRC-IRC-IRC-IRC-IRC-IRC-IRC-IRC-IRC-IRC-IRC-IRC-IRC
                          Input orientation:                          
 ---------------------------------------------------------------------
 Center     Atomic      Atomic             Coordinates (Angstroms)
 Number     Number       Type             X           Y           Z
 ---------------------------------------------------------------------
      1          6           0        0.390502   -0.775044   -0.254493
      2          6           0       -0.522278    0.410747   -0.467844
      3          6           0       -1.991894    0.388244    0.124750
      4          8           0        1.701078   -0.246537   -0.497199
      5          8           0        2.041930    0.648058    0.610870
      6          8           0       -2.139329   -0.748251    0.428355
      7          1           0        2.889342    0.246720    0.878577
      8          1           0        0.307423   -1.180679    0.761138
      9          1           0        0.335423   -1.601580   -0.977324
     10          1           0       -1.374268    3.759140   -0.434049
     11          1           0       -0.533118    0.817444   -1.484233
     12          1           0       -1.790114    3.176746   -0.231102
 ---------------------------------------------------------------------
                    Distance matrix (angstroms):
                    1          2          3          4          5
     1  C    0.000000
     2  C    1.511551   0.000000
     3  C    2.678222   1.584755   0.000000
     4  O    1.433818   2.318662   3.798396   0.000000
     5  O    2.345482   2.791971   4.071308   1.464342   0.000000
     6  O    2.620504   2.182041   1.185552   3.982096   4.412019
     7  H    2.927806   3.671363   4.941128   1.883622   0.975114
     8  H    1.096790   2.175187   2.855411   2.097214   2.524950
     9  H    1.099400   2.246036   3.254285   1.982845   3.239660
    10  H    4.868826   3.455251   3.472270   5.050464   4.737203
    11  H    2.213899   1.094790   2.213836   2.664193   3.324006
    12  H    4.513565   3.051918   2.818349   4.896743   4.667733
                    6          7          8          9         10
     6  O    0.000000
     7  H    5.145891   0.000000
     8  H    2.506858   2.952552   0.000000
     9  H    2.971279   3.658289   1.788908   0.000000
    10  H    4.652486   5.677892   5.353351   5.652920   0.000000
    11  H    2.947763   4.197836   3.121009   2.619732   3.234809
    12  H    3.995302   5.631496   4.936736   5.282722   0.743839
                   11         12
    11  H    0.000000
    12  H    2.952402   0.000000
 Symmetry turned off by external request.
 Stoichiometry    C3H6O3
 Framework group  C1[X(C3H6O3)]
 Deg. of freedom    30
 Full point group                 C1      NOp   1
 Rotational constants (GHZ):           6.5558235           1.8379264           1.6306218
 Standard basis: 6-31+G(d) (6D, 7F)
   126 basis functions,   216 primitive gaussians,   126 cartesian basis functions
    24 alpha electrons       24 beta electrons
       nuclear repulsion energy       229.9807503639 Hartrees.
 NAtoms=   12 NActive=   12 NUniq=   12 SFac= 1.00D+00 NAtFMM=   60 NAOKFM=F Big=F
 Integral buffers will be    131072 words long.
 Raffenetti 2 integral format.
 Two-electron integral symmetry is turned off.
 One-electron integrals computed using PRISM.
 NBasis=   126 RedAO= T EigKep=  1.01D-04  NBF=   126
 NBsUse=   126 1.00D-06 EigRej= -1.00D+00 NBFU=   126
 Initial guess from the checkpoint file:  "/scratch/bell/zhao922/YARP/paper-example/KHP-network/pp_0/IRC-folder/Gau-72256.chk"
 B after Tr=     0.000356    0.001132    0.000061
         Rot=    1.000000   -0.000579    0.000058    0.000095 Ang=  -0.07 deg.
 ExpMin= 4.38D-02 ExpMax= 5.48D+03 ExpMxC= 8.25D+02 IAcc=3 IRadAn=         5 AccDes= 0.00D+00
 Harris functional with IExCor=  402 and IRadAn=       5 diagonalized for initial guess.
 HarFok:  IExCor=  402 AccDes= 0.00D+00 IRadAn=         5 IDoV= 1 UseB2=F ITyADJ=14
 ICtDFT=  3500011 ScaDFX=  1.000000  1.000000  1.000000  1.000000
 FoFCou: FMM=F IPFlag=           0 FMFlag=      100000 FMFlg1=           0
         NFxFlg=           0 DoJE=T BraDBF=F KetDBF=T FulRan=T
         wScrn=  0.000000 ICntrl=       500 IOpCl=  0 I1Cent=   200000004 NGrid=           0
         NMat0=    1 NMatS0=      1 NMatT0=    0 NMatD0=    1 NMtDS0=    0 NMtDT0=    0
 Symmetry not used in FoFCou.
 Keep R1 ints in memory in canonical form, NReq=47237243.
 Requested convergence on RMS density matrix=1.00D-08 within 128 cycles.
 Requested convergence on MAX density matrix=1.00D-06.
 Requested convergence on             energy=1.00D-06.
 No special actions if energy rises.
 SCF Done:  E(RB3LYP) =  -343.308105136     A.U. after   14 cycles
            NFock= 14  Conv=0.33D-08     -V/T= 2.0091
 DoSCS=F DFT=T ScalE2(SS,OS)=  1.000000  1.000000
 Range of M.O.s used for correlation:     1   126
 NBasis=   126 NAE=    24 NBE=    24 NFC=     0 NFV=     0
 NROrb=    126 NOA=    24 NOB=    24 NVA=   102 NVB=   102

 **** Warning!!: The largest alpha MO coefficient is  0.37573735D+02


 **** Warning!!: The smallest alpha delta epsilon is  0.70165566D-01

 Symmetrizing basis deriv contribution to polar:
 IMax=3 JMax=2 DiffMx= 0.00D+00
 G2DrvN: will do    13 centers at a time, making    1 passes.
 Calling FoFCou, ICntrl=  3107 FMM=F I1Cent=   0 AccDes= 0.00D+00.
 End of G2Drv F.D. properties file   721 does not exist.
 End of G2Drv F.D. properties file   722 does not exist.
 End of G2Drv F.D. properties file   788 does not exist.
          IDoAtm=111111111111
          Differentiating once with respect to nuclear coordinates.
 Keep R1 ints in memory in canonical form, NReq=47193279.
          There are    39 degrees of freedom in the 1st order CPHF.  IDoFFX=6 NUNeed=     0.
     33 vectors produced by pass  0 Test12= 6.28D-15 2.56D-09 XBig12= 1.63D-01 1.85D-01.
 AX will form    33 AO Fock derivatives at one time.
     33 vectors produced by pass  1 Test12= 6.28D-15 2.56D-09 XBig12= 8.17D-02 7.30D-02.
     33 vectors produced by pass  2 Test12= 6.28D-15 2.56D-09 XBig12= 1.69D-03 1.03D-02.
     33 vectors produced by pass  3 Test12= 6.28D-15 2.56D-09 XBig12= 7.13D-06 3.66D-04.
     31 vectors produced by pass  4 Test12= 6.28D-15 2.56D-09 XBig12= 1.18D-08 1.28D-05.
     26 vectors produced by pass  5 Test12= 6.28D-15 2.56D-09 XBig12= 1.50D-11 5.63D-07.
      8 vectors produced by pass  6 Test12= 6.28D-15 2.56D-09 XBig12= 1.55D-14 1.39D-08.
 InvSVY:  IOpt=1 It=  1 EMax= 1.55D-15
 Solved reduced A of dimension   197 with    33 vectors.
 End of Minotr F.D. properties file   721 does not exist.
 End of Minotr F.D. properties file   722 does not exist.
 End of Minotr F.D. properties file   788 does not exist.
 Calling FoFJK, ICntrl=    100127 FMM=F ISym2X=0 I1Cent= 0 IOpClX= 0 NMat=1 NMatS=1 NMatT=0.
 -------------------------------------------------------------------
 Center     Atomic                   Forces (Hartrees/Bohr)
 Number     Number              X              Y              Z
 -------------------------------------------------------------------
      1        6          -0.002232004    0.002111187   -0.003822699
      2        6           0.001193927    0.009004078    0.002060205
      3        6           0.010403104   -0.013042906   -0.015591899
      4        8          -0.000765531   -0.001179736    0.000283001
      5        8          -0.000199089   -0.000737168    0.000052362
      6        8          -0.009488751    0.000619509    0.015453047
      7        1          -0.000010427   -0.000078633   -0.000041484
      8        1          -0.000522727    0.000048122   -0.000337705
      9        1          -0.000222801    0.000264568   -0.000409900
     10        1          -0.000011109   -0.000080998    0.000100654
     11        1           0.001975833    0.003051865    0.002336814
     12        1          -0.000120424    0.000020112   -0.000082394
 -------------------------------------------------------------------
 Cartesian Forces:  Max     0.015591899 RMS     0.005226820
 IRC-IRC-IRC-IRC-IRC-IRC-IRC-IRC-IRC-IRC-IRC-IRC-IRC-IRC-IRC-IRC-IRC-IRC
 Pt  3 Step number   1 out of a maximum of 100
 Modified Bulirsch-Stoer Extrapolation Cycles:
    EPS =    0.000010000000000
      PEZero:  N= 2 I= 1 D=  1.62D-03 Err=  1.40D-04
      PEZero:  N= 3 I= 2 D=  1.62D-03 Err=  9.34D-05
      PEZero:  N= 3 I= 1 D=  3.24D-03 Err=  2.95D-07
 Maximum DWI energy   std dev =  0.000007219 at pt    70
 Maximum DWI gradient std dev =  0.036177792 at pt    23
 CORRECTOR INTEGRATION CONVERGENCE:
   Recorrection delta-x convergence threshold:    0.010000
   Delta-x Convergence Met
 Point Number:   3          Path Number:   1
   CHANGE IN THE REACTION COORDINATE =    0.31080
   NET REACTION COORDINATE UP TO THIS POINT =    0.93221
  # OF POINTS ALONG THE PATH =   3
  # OF STEPS =   1

 Calculating another point on the path.
 IRC-IRC-IRC-IRC-IRC-IRC-IRC-IRC-IRC-IRC-IRC-IRC-IRC-IRC-IRC-IRC-IRC-IRC
                          Input orientation:                          
 ---------------------------------------------------------------------
 Center     Atomic      Atomic             Coordinates (Angstroms)
 Number     Number       Type             X           Y           Z
 ---------------------------------------------------------------------
      1          6           0        0.387202   -0.771768   -0.259810
      2          6           0       -0.521493    0.422629   -0.463812
      3          6           0       -1.975472    0.370675    0.102309
      4          8           0        1.700241   -0.247827   -0.496825
      5          8           0        2.041724    0.647330    0.610898
      6          8           0       -2.149872   -0.748377    0.444866
      7          1           0        2.889225    0.245564    0.877732
      8          1           0        0.298830   -1.179495    0.755516
      9          1           0        0.332208   -1.597489   -0.983834
     10          1           0       -1.374299    3.758399   -0.432668
     11          1           0       -0.500682    0.876570   -1.457425
     12          1           0       -1.792336    3.176961   -0.232227
 ---------------------------------------------------------------------
                    Distance matrix (angstroms):
                    1          2          3          4          5
     1  C    0.000000
     2  C    1.514572   0.000000
     3  C    2.649252   1.561169   0.000000
     4  O    1.433444   2.320927   3.775232   0.000000
     5  O    2.347214   2.788471   4.058702   1.464571   0.000000
     6  O    2.633222   2.201946   1.183232   3.995085   4.420977
     7  H    2.930713   3.669345   4.927698   1.883222   0.975128
     8  H    1.097696   2.174050   2.828808   2.097694   2.529008
     9  H    1.099569   2.253909   3.221609   1.982493   3.241115
    10  H    4.863659   3.443198   3.481994   5.050422   4.736770
    11  H    2.222530   1.092594   2.205381   2.651619   3.285474
    12  H    4.510389   3.042206   2.832083   4.898702   4.670108
                    6          7          8          9         10
     6  O    0.000000
     7  H    5.154395   0.000000
     8  H    2.505695   2.959033   0.000000
     9  H    2.987122   3.660684   1.789182   0.000000
    10  H    4.656459   5.677570   5.347330   5.648140   0.000000
    11  H    2.996496   4.164444   3.124697   2.653104   3.180924
    12  H    3.999320   5.634014   4.932274   5.279581   0.743641
                   11         12
    11  H    0.000000
    12  H    2.908829   0.000000
 Symmetry turned off by external request.
 Stoichiometry    C3H6O3
 Framework group  C1[X(C3H6O3)]
 Deg. of freedom    30
 Full point group                 C1      NOp   1
 Rotational constants (GHZ):           6.5585953           1.8380492           1.6318406
 Standard basis: 6-31+G(d) (6D, 7F)
   126 basis functions,   216 primitive gaussians,   126 cartesian basis functions
    24 alpha electrons       24 beta electrons
       nuclear repulsion energy       230.1250699109 Hartrees.
 NAtoms=   12 NActive=   12 NUniq=   12 SFac= 1.00D+00 NAtFMM=   60 NAOKFM=F Big=F
 Integral buffers will be    131072 words long.
 Raffenetti 2 integral format.
 Two-electron integral symmetry is turned off.
 One-electron integrals computed using PRISM.
 NBasis=   126 RedAO= T EigKep=  1.02D-04  NBF=   126
 NBsUse=   126 1.00D-06 EigRej= -1.00D+00 NBFU=   126
 Initial guess from the checkpoint file:  "/scratch/bell/zhao922/YARP/paper-example/KHP-network/pp_0/IRC-folder/Gau-72256.chk"
 B after Tr=     0.000333    0.001191    0.000159
         Rot=    1.000000   -0.000580    0.000048    0.000094 Ang=  -0.07 deg.
 ExpMin= 4.38D-02 ExpMax= 5.48D+03 ExpMxC= 8.25D+02 IAcc=3 IRadAn=         5 AccDes= 0.00D+00
 Harris functional with IExCor=  402 and IRadAn=       5 diagonalized for initial guess.
 HarFok:  IExCor=  402 AccDes= 0.00D+00 IRadAn=         5 IDoV= 1 UseB2=F ITyADJ=14
 ICtDFT=  3500011 ScaDFX=  1.000000  1.000000  1.000000  1.000000
 FoFCou: FMM=F IPFlag=           0 FMFlag=      100000 FMFlg1=           0
         NFxFlg=           0 DoJE=T BraDBF=F KetDBF=T FulRan=T
         wScrn=  0.000000 ICntrl=       500 IOpCl=  0 I1Cent=   200000004 NGrid=           0
         NMat0=    1 NMatS0=      1 NMatT0=    0 NMatD0=    1 NMtDS0=    0 NMtDT0=    0
 Symmetry not used in FoFCou.
 Keep R1 ints in memory in canonical form, NReq=47237243.
 Requested convergence on RMS density matrix=1.00D-08 within 128 cycles.
 Requested convergence on MAX density matrix=1.00D-06.
 Requested convergence on             energy=1.00D-06.
 No special actions if energy rises.
 SCF Done:  E(RB3LYP) =  -343.311854019     A.U. after   14 cycles
            NFock= 14  Conv=0.40D-08     -V/T= 2.0092
 DoSCS=F DFT=T ScalE2(SS,OS)=  1.000000  1.000000
 Range of M.O.s used for correlation:     1   126
 NBasis=   126 NAE=    24 NBE=    24 NFC=     0 NFV=     0
 NROrb=    126 NOA=    24 NOB=    24 NVA=   102 NVB=   102

 **** Warning!!: The largest alpha MO coefficient is  0.37645963D+02


 **** Warning!!: The smallest alpha delta epsilon is  0.66096653D-01

 Symmetrizing basis deriv contribution to polar:
 IMax=3 JMax=2 DiffMx= 0.00D+00
 G2DrvN: will do    13 centers at a time, making    1 passes.
 Calling FoFCou, ICntrl=  3107 FMM=F I1Cent=   0 AccDes= 0.00D+00.
 End of G2Drv F.D. properties file   721 does not exist.
 End of G2Drv F.D. properties file   722 does not exist.
 End of G2Drv F.D. properties file   788 does not exist.
          IDoAtm=111111111111
          Differentiating once with respect to nuclear coordinates.
 Keep R1 ints in memory in canonical form, NReq=47193279.
          There are    39 degrees of freedom in the 1st order CPHF.  IDoFFX=6 NUNeed=     0.
     33 vectors produced by pass  0 Test12= 6.28D-15 2.56D-09 XBig12= 1.72D-01 1.95D-01.
 AX will form    33 AO Fock derivatives at one time.
     33 vectors produced by pass  1 Test12= 6.28D-15 2.56D-09 XBig12= 7.23D-02 7.67D-02.
     33 vectors produced by pass  2 Test12= 6.28D-15 2.56D-09 XBig12= 1.55D-03 9.20D-03.
     33 vectors produced by pass  3 Test12= 6.28D-15 2.56D-09 XBig12= 6.62D-06 3.79D-04.
     31 vectors produced by pass  4 Test12= 6.28D-15 2.56D-09 XBig12= 1.00D-08 1.46D-05.
     26 vectors produced by pass  5 Test12= 6.28D-15 2.56D-09 XBig12= 1.36D-11 6.77D-07.
      8 vectors produced by pass  6 Test12= 6.28D-15 2.56D-09 XBig12= 1.38D-14 1.40D-08.
 InvSVY:  IOpt=1 It=  1 EMax= 1.78D-15
 Solved reduced A of dimension   197 with    33 vectors.
 End of Minotr F.D. properties file   721 does not exist.
 End of Minotr F.D. properties file   722 does not exist.
 End of Minotr F.D. properties file   788 does not exist.
 Calling FoFJK, ICntrl=    100127 FMM=F ISym2X=0 I1Cent= 0 IOpClX= 0 NMat=1 NMatS=1 NMatT=0.
 -------------------------------------------------------------------
 Center     Atomic                   Forces (Hartrees/Bohr)
 Number     Number              X              Y              Z
 -------------------------------------------------------------------
      1        6          -0.003097003    0.003604447   -0.005244971
      2        6          -0.001285975    0.012788720    0.003015228
      3        6           0.019595426   -0.020215813   -0.022943875
      4        8          -0.001178945   -0.001895034    0.000619290
      5        8          -0.000301306   -0.000988149   -0.000012648
      6        8          -0.015272397    0.001398390    0.022205533
      7        1          -0.000000976   -0.000090309   -0.000084151
      8        1          -0.000751021    0.000163130   -0.000466816
      9        1          -0.000340322    0.000423931   -0.000580487
     10        1          -0.000033784   -0.000060346    0.000110364
     11        1           0.002833403    0.004801880    0.003477428
     12        1          -0.000167101    0.000069151   -0.000094895
 -------------------------------------------------------------------
 Cartesian Forces:  Max     0.022943875 RMS     0.008032718
 IRC-IRC-IRC-IRC-IRC-IRC-IRC-IRC-IRC-IRC-IRC-IRC-IRC-IRC-IRC-IRC-IRC-IRC
 Pt  4 Step number   1 out of a maximum of 100
 Modified Bulirsch-Stoer Extrapolation Cycles:
    EPS =    0.000010000000000
      PEZero:  N= 2 I= 1 D=  1.62D-03 Err=  1.54D-04
      PEZero:  N= 3 I= 2 D=  1.62D-03 Err=  1.03D-04
      PEZero:  N= 3 I= 1 D=  3.24D-03 Err=  2.56D-07
 Maximum DWI energy   std dev =  0.000009507 at pt    69
 Maximum DWI gradient std dev =  0.026501660 at pt    12
 CORRECTOR INTEGRATION CONVERGENCE:
   Recorrection delta-x convergence threshold:    0.010000
   Delta-x Convergence Met
 Point Number:   4          Path Number:   1
   CHANGE IN THE REACTION COORDINATE =    0.31078
   NET REACTION COORDINATE UP TO THIS POINT =    1.24299
  # OF POINTS ALONG THE PATH =   4
  # OF STEPS =   1

 Calculating another point on the path.
 IRC-IRC-IRC-IRC-IRC-IRC-IRC-IRC-IRC-IRC-IRC-IRC-IRC-IRC-IRC-IRC-IRC-IRC
                          Input orientation:                          
 ---------------------------------------------------------------------
 Center     Atomic      Atomic             Coordinates (Angstroms)
 Number     Number       Type             X           Y           Z
 ---------------------------------------------------------------------
      1          6           0        0.384400   -0.768226   -0.264392
      2          6           0       -0.523923    0.433679   -0.460541
      3          6           0       -1.955647    0.352362    0.081375
      4          8           0        1.699419   -0.249158   -0.496337
      5          8           0        2.041523    0.646688    0.610860
      6          8           0       -2.160855   -0.747658    0.459929
      7          1           0        2.889278    0.244739    0.876668
      8          1           0        0.290920   -1.177349    0.750838
      9          1           0        0.328770   -1.592934   -0.989764
     10          1           0       -1.374633    3.758283   -0.431757
     11          1           0       -0.470395    0.934276   -1.427200
     12          1           0       -1.794203    3.177729   -0.233027
 ---------------------------------------------------------------------
                    Distance matrix (angstroms):
                    1          2          3          4          5
     1  C    0.000000
     2  C    1.519244   0.000000
     3  C    2.617460   1.533010   0.000000
     4  O    1.432656   2.326113   3.749012   0.000000
     5  O    2.348213   2.788331   4.042815   1.464740   0.000000
     6  O    2.646392   2.218641   1.181295   4.008075   4.430233
     7  H    2.933007   3.670664   4.910944   1.882775   0.975144
     8  H    1.098551   2.174125   2.799153   2.097821   2.532058
     9  H    1.099728   2.261487   3.185918   1.981888   3.242133
    10  H    4.859166   3.431841   3.493019   5.051095   4.737003
    11  H    2.231885   1.089905   2.195540   2.641044   3.247481
    12  H    4.507533   3.032356   2.847387   4.900845   4.672377
                    6          7          8          9         10
     6  O    0.000000
     7  H    5.163561   0.000000
     8  H    2.506085   2.964731   0.000000
     9  H    3.002388   3.662896   1.789927   0.000000
    10  H    4.660125   5.677844   5.341635   5.643446   0.000000
    11  H    3.041022   4.131667   3.127685   2.686411   3.127870
    12  H    4.002910   5.636386   4.927721   5.276257   0.743354
                   11         12
    11  H    0.000000
    12  H    2.865589   0.000000
 Symmetry turned off by external request.
 Stoichiometry    C3H6O3
 Framework group  C1[X(C3H6O3)]
 Deg. of freedom    30
 Full point group                 C1      NOp   1
 Rotational constants (GHZ):           6.5632893           1.8386974           1.6334741
 Standard basis: 6-31+G(d) (6D, 7F)
   126 basis functions,   216 primitive gaussians,   126 cartesian basis functions
    24 alpha electrons       24 beta electrons
       nuclear repulsion energy       230.3194742452 Hartrees.
 NAtoms=   12 NActive=   12 NUniq=   12 SFac= 1.00D+00 NAtFMM=   60 NAOKFM=F Big=F
 Integral buffers will be    131072 words long.
 Raffenetti 2 integral format.
 Two-electron integral symmetry is turned off.
 One-electron integrals computed using PRISM.
 NBasis=   126 RedAO= T EigKep=  1.04D-04  NBF=   126
 NBsUse=   126 1.00D-06 EigRej= -1.00D+00 NBFU=   126
 Initial guess from the checkpoint file:  "/scratch/bell/zhao922/YARP/paper-example/KHP-network/pp_0/IRC-folder/Gau-72256.chk"
 B after Tr=     0.000306    0.001221    0.000249
         Rot=    1.000000   -0.000570    0.000037    0.000092 Ang=  -0.07 deg.
 ExpMin= 4.38D-02 ExpMax= 5.48D+03 ExpMxC= 8.25D+02 IAcc=3 IRadAn=         5 AccDes= 0.00D+00
 Harris functional with IExCor=  402 and IRadAn=       5 diagonalized for initial guess.
 HarFok:  IExCor=  402 AccDes= 0.00D+00 IRadAn=         5 IDoV= 1 UseB2=F ITyADJ=14
 ICtDFT=  3500011 ScaDFX=  1.000000  1.000000  1.000000  1.000000
 FoFCou: FMM=F IPFlag=           0 FMFlag=      100000 FMFlg1=           0
         NFxFlg=           0 DoJE=T BraDBF=F KetDBF=T FulRan=T
         wScrn=  0.000000 ICntrl=       500 IOpCl=  0 I1Cent=   200000004 NGrid=           0
         NMat0=    1 NMatS0=      1 NMatT0=    0 NMatD0=    1 NMtDS0=    0 NMtDT0=    0
 Symmetry not used in FoFCou.
 Keep R1 ints in memory in canonical form, NReq=47237243.
 Requested convergence on RMS density matrix=1.00D-08 within 128 cycles.
 Requested convergence on MAX density matrix=1.00D-06.
 Requested convergence on             energy=1.00D-06.
 No special actions if energy rises.
 SCF Done:  E(RB3LYP) =  -343.317490873     A.U. after   14 cycles
            NFock= 14  Conv=0.51D-08     -V/T= 2.0093
 DoSCS=F DFT=T ScalE2(SS,OS)=  1.000000  1.000000
 Range of M.O.s used for correlation:     1   126
 NBasis=   126 NAE=    24 NBE=    24 NFC=     0 NFV=     0
 NROrb=    126 NOA=    24 NOB=    24 NVA=   102 NVB=   102

 **** Warning!!: The largest alpha MO coefficient is  0.37238325D+02


 **** Warning!!: The smallest alpha delta epsilon is  0.62886661D-01

 Symmetrizing basis deriv contribution to polar:
 IMax=3 JMax=2 DiffMx= 0.00D+00
 G2DrvN: will do    13 centers at a time, making    1 passes.
 Calling FoFCou, ICntrl=  3107 FMM=F I1Cent=   0 AccDes= 0.00D+00.
 End of G2Drv F.D. properties file   721 does not exist.
 End of G2Drv F.D. properties file   722 does not exist.
 End of G2Drv F.D. properties file   788 does not exist.
          IDoAtm=111111111111
          Differentiating once with respect to nuclear coordinates.
 Keep R1 ints in memory in canonical form, NReq=47193279.
          There are    39 degrees of freedom in the 1st order CPHF.  IDoFFX=6 NUNeed=     0.
     33 vectors produced by pass  0 Test12= 6.28D-15 2.56D-09 XBig12= 1.91D-01 2.14D-01.
 AX will form    33 AO Fock derivatives at one time.
     33 vectors produced by pass  1 Test12= 6.28D-15 2.56D-09 XBig12= 5.96D-02 7.70D-02.
     33 vectors produced by pass  2 Test12= 6.28D-15 2.56D-09 XBig12= 1.30D-03 7.24D-03.
     33 vectors produced by pass  3 Test12= 6.28D-15 2.56D-09 XBig12= 6.68D-06 3.48D-04.
     31 vectors produced by pass  4 Test12= 6.28D-15 2.56D-09 XBig12= 1.12D-08 1.72D-05.
     26 vectors produced by pass  5 Test12= 6.28D-15 2.56D-09 XBig12= 1.62D-11 8.17D-07.
      8 vectors produced by pass  6 Test12= 6.28D-15 2.56D-09 XBig12= 1.58D-14 1.30D-08.
 InvSVY:  IOpt=1 It=  1 EMax= 2.44D-15
 Solved reduced A of dimension   197 with    33 vectors.
 End of Minotr F.D. properties file   721 does not exist.
 End of Minotr F.D. properties file   722 does not exist.
 End of Minotr F.D. properties file   788 does not exist.
 Calling FoFJK, ICntrl=    100127 FMM=F ISym2X=0 I1Cent= 0 IOpClX= 0 NMat=1 NMatS=1 NMatT=0.
 -------------------------------------------------------------------
 Center     Atomic                   Forces (Hartrees/Bohr)
 Number     Number              X              Y              Z
 -------------------------------------------------------------------
      1        6          -0.003704985    0.005802817   -0.006193638
      2        6          -0.007052427    0.017527116    0.003224834
      3        6           0.034661757   -0.030323564   -0.031020291
      4        8          -0.001665317   -0.002873466    0.001123036
      5        8          -0.000436523   -0.001310219   -0.000165292
      6        8          -0.023857187    0.003061970    0.029560208
      7        1           0.000023056   -0.000086988   -0.000152098
      8        1          -0.000965941    0.000346714   -0.000583788
      9        1          -0.000571455    0.000712511   -0.000815408
     10        1          -0.000087179    0.000008942    0.000094447
     11        1           0.003855161    0.006969276    0.005018528
     12        1          -0.000198962    0.000164891   -0.000090538
 -------------------------------------------------------------------
 Cartesian Forces:  Max     0.034661757 RMS     0.011895983
 IRC-IRC-IRC-IRC-IRC-IRC-IRC-IRC-IRC-IRC-IRC-IRC-IRC-IRC-IRC-IRC-IRC-IRC
 Pt  5 Step number   1 out of a maximum of 100
 Modified Bulirsch-Stoer Extrapolation Cycles:
    EPS =    0.000010000000000
      PEZero:  N= 2 I= 1 D=  1.62D-03 Err=  1.72D-04
      PEZero:  N= 3 I= 2 D=  1.62D-03 Err=  1.14D-04
      PEZero:  N= 3 I= 1 D=  3.24D-03 Err=  2.03D-07
 Maximum DWI energy   std dev =  0.000013124 at pt    69
 Maximum DWI gradient std dev =  0.021752639 at pt    12
 CORRECTOR INTEGRATION CONVERGENCE:
   Recorrection delta-x convergence threshold:    0.010000
   Delta-x Convergence Met
 Point Number:   5          Path Number:   1
   CHANGE IN THE REACTION COORDINATE =    0.31072
   NET REACTION COORDINATE UP TO THIS POINT =    1.55371
  # OF POINTS ALONG THE PATH =   5
  # OF STEPS =   1

 Calculating another point on the path.
 IRC-IRC-IRC-IRC-IRC-IRC-IRC-IRC-IRC-IRC-IRC-IRC-IRC-IRC-IRC-IRC-IRC-IRC
                          Input orientation:                          
 ---------------------------------------------------------------------
 Center     Atomic      Atomic             Coordinates (Angstroms)
 Number     Number       Type             X           Y           Z
 ---------------------------------------------------------------------
      1          6           0        0.382304   -0.764412   -0.267790
      2          6           0       -0.529823    0.444024   -0.458616
      3          6           0       -1.932146    0.333506    0.062806
      4          8           0        1.698660   -0.250518   -0.495768
      5          8           0        2.041326    0.646099    0.610751
      6          8           0       -2.172475   -0.746231    0.473146
      7          1           0        2.889522    0.244271    0.875419
      8          1           0        0.284328   -1.174577    0.747221
      9          1           0        0.324431   -1.587271   -0.995477
     10          1           0       -1.375326    3.758860   -0.431351
     11          1           0       -0.442638    0.988647   -1.395006
     12          1           0       -1.795591    3.179030   -0.233470
 ---------------------------------------------------------------------
                    Distance matrix (angstroms):
                    1          2          3          4          5
     1  C    0.000000
     2  C    1.526011   0.000000
     3  C    2.582905   1.500202   0.000000
     4  O    1.431381   2.334503   3.719656   0.000000
     5  O    2.348133   2.791986   4.023238   1.464830   0.000000
     6  O    2.660116   2.232307   1.179817   4.021220   4.440005
     7  H    2.934367   3.675795   4.890479   1.882319   0.975167
     8  H    1.099128   2.176409   2.766857   2.097437   2.533876
     9  H    1.099988   2.268067   3.146663   1.981192   3.242782
    10  H    4.855514   3.421076   3.505324   5.052589   4.738014
    11  H    2.241510   1.086757   2.184734   2.632359   3.210993
    12  H    4.505014   3.022105   2.864164   4.903100   4.674440
                    6          7          8          9         10
     6  O    0.000000
     7  H    5.173658   0.000000
     8  H    2.508880   2.969276   0.000000
     9  H    3.016412   3.665309   1.791346   0.000000
    10  H    4.663626   5.678813   5.336880   5.638132   0.000000
    11  H    3.080930   4.100270   3.130041   2.717236   3.077762
    12  H    4.006123   5.638504   4.923588   5.271885   0.742955
                   11         12
    11  H    0.000000
    12  H    2.824434   0.000000
 Symmetry turned off by external request.
 Stoichiometry    C3H6O3
 Framework group  C1[X(C3H6O3)]
 Deg. of freedom    30
 Full point group                 C1      NOp   1
 Rotational constants (GHZ):           6.5697708           1.8397716           1.6354580
 Standard basis: 6-31+G(d) (6D, 7F)
   126 basis functions,   216 primitive gaussians,   126 cartesian basis functions
    24 alpha electrons       24 beta electrons
       nuclear repulsion energy       230.5629689552 Hartrees.
 NAtoms=   12 NActive=   12 NUniq=   12 SFac= 1.00D+00 NAtFMM=   60 NAOKFM=F Big=F
 Integral buffers will be    131072 words long.
 Raffenetti 2 integral format.
 Two-electron integral symmetry is turned off.
 One-electron integrals computed using PRISM.
 NBasis=   126 RedAO= T EigKep=  1.05D-04  NBF=   126
 NBsUse=   126 1.00D-06 EigRej= -1.00D+00 NBFU=   126
 Initial guess from the checkpoint file:  "/scratch/bell/zhao922/YARP/paper-example/KHP-network/pp_0/IRC-folder/Gau-72256.chk"
 B after Tr=     0.000272    0.001223    0.000308
         Rot=    1.000000   -0.000549    0.000024    0.000087 Ang=  -0.06 deg.
 ExpMin= 4.38D-02 ExpMax= 5.48D+03 ExpMxC= 8.25D+02 IAcc=3 IRadAn=         5 AccDes= 0.00D+00
 Harris functional with IExCor=  402 and IRadAn=       5 diagonalized for initial guess.
 HarFok:  IExCor=  402 AccDes= 0.00D+00 IRadAn=         5 IDoV= 1 UseB2=F ITyADJ=14
 ICtDFT=  3500011 ScaDFX=  1.000000  1.000000  1.000000  1.000000
 FoFCou: FMM=F IPFlag=           0 FMFlag=      100000 FMFlg1=           0
         NFxFlg=           0 DoJE=T BraDBF=F KetDBF=T FulRan=T
         wScrn=  0.000000 ICntrl=       500 IOpCl=  0 I1Cent=   200000004 NGrid=           0
         NMat0=    1 NMatS0=      1 NMatT0=    0 NMatD0=    1 NMtDS0=    0 NMtDT0=    0
 Symmetry not used in FoFCou.
 Keep R1 ints in memory in canonical form, NReq=47237243.
 Requested convergence on RMS density matrix=1.00D-08 within 128 cycles.
 Requested convergence on MAX density matrix=1.00D-06.
 Requested convergence on             energy=1.00D-06.
 No special actions if energy rises.
 SCF Done:  E(RB3LYP) =  -343.325746969     A.U. after   15 cycles
            NFock= 15  Conv=0.10D-07     -V/T= 2.0094
 DoSCS=F DFT=T ScalE2(SS,OS)=  1.000000  1.000000
 Range of M.O.s used for correlation:     1   126
 NBasis=   126 NAE=    24 NBE=    24 NFC=     0 NFV=     0
 NROrb=    126 NOA=    24 NOB=    24 NVA=   102 NVB=   102

 **** Warning!!: The largest alpha MO coefficient is  0.36562908D+02


 **** Warning!!: The smallest alpha delta epsilon is  0.61048980D-01

 Symmetrizing basis deriv contribution to polar:
 IMax=3 JMax=2 DiffMx= 0.00D+00
 G2DrvN: will do    13 centers at a time, making    1 passes.
 Calling FoFCou, ICntrl=  3107 FMM=F I1Cent=   0 AccDes= 0.00D+00.
 End of G2Drv F.D. properties file   721 does not exist.
 End of G2Drv F.D. properties file   722 does not exist.
 End of G2Drv F.D. properties file   788 does not exist.
          IDoAtm=111111111111
          Differentiating once with respect to nuclear coordinates.
 Keep R1 ints in memory in canonical form, NReq=47193279.
          There are    39 degrees of freedom in the 1st order CPHF.  IDoFFX=6 NUNeed=     0.
     33 vectors produced by pass  0 Test12= 6.28D-15 2.56D-09 XBig12= 2.48D-01 2.92D-01.
 AX will form    33 AO Fock derivatives at one time.
     33 vectors produced by pass  1 Test12= 6.28D-15 2.56D-09 XBig12= 4.69D-02 7.17D-02.
     33 vectors produced by pass  2 Test12= 6.28D-15 2.56D-09 XBig12= 1.01D-03 5.38D-03.
[...]
  58                    0.42905   0.56665  -1.36153  -1.35358  -1.48735
  59                    0.40856   0.58860  -1.35623  -1.37373  -1.49301
  60                    0.38819   0.61047  -1.35111  -1.39349  -1.49907
  61                    0.36796   0.63222  -1.34615  -1.41286  -1.50576
  62                    0.34797   0.65373  -1.34139  -1.43173  -1.51334
  63                    0.32847   0.67470  -1.33686  -1.44989  -1.52207
  64                    0.30975   0.69469  -1.33262  -1.46707  -1.53207
  65                    0.29199   0.71339  -1.32867  -1.48311  -1.54324
  66                    0.27510   0.73075  -1.32494  -1.49810  -1.55542
  67                    0.25882   0.74700  -1.32131  -1.51231  -1.56850
  68                    0.24283   0.76242  -1.31764  -1.52604  -1.58245
                          Y10       Z10       X11       Y11       Z11
   1                    4.01171  -0.64221  -0.76140   0.46962  -1.42584
   2                    3.99031  -0.63817  -0.77845   0.44863  -1.43976
   3                    3.97540  -0.63191  -0.79466   0.42721  -1.45312
   4                    3.96212  -0.62434  -0.81052   0.40541  -1.46615
   5                    3.94897  -0.61536  -0.82652   0.38338  -1.47906
   6                    3.93522  -0.60464  -0.84347   0.36152  -1.49206
   7                    3.92051  -0.59174  -0.86236   0.34061  -1.50525
   8                    3.90509  -0.57668  -0.88349   0.32192  -1.51813
   9                    3.88972  -0.56049  -0.90548   0.30662  -1.52941
  10                    3.87508  -0.54469  -0.92591   0.29490  -1.53790
  11                    3.86138  -0.53019  -0.94302   0.28633  -1.54310
  12                    3.84864  -0.51727  -0.95597   0.28057  -1.54515
  13                    3.83686  -0.50595  -0.96433   0.27776  -1.54463
  14                    3.82621  -0.49625  -0.96743   0.27847  -1.54275
  15                    3.81715  -0.48835  -0.96467   0.28293  -1.54133
  16                    3.80987  -0.48216  -0.95662   0.29052  -1.54149
  17                    3.80395  -0.47718  -0.94451   0.30071  -1.54304
  18                    3.79893  -0.47294  -0.92910   0.31352  -1.54550
  19                    3.79448  -0.46913  -0.91071   0.32922  -1.54843
  20                    3.79040  -0.46559  -0.88952   0.34818  -1.55154
  21                    3.78658  -0.46220  -0.86561   0.37075  -1.55452
  22                    3.78296  -0.45891  -0.83909   0.39722  -1.55705
  23                    3.77950  -0.45567  -0.81012   0.42787  -1.55877
  24                    3.77617  -0.45248  -0.77888   0.46290  -1.55922
  25                    3.77298  -0.44934  -0.74568   0.50239  -1.55790
  26                    3.76995  -0.44628  -0.71091   0.54636  -1.55421
  27                    3.76715  -0.44335  -0.67518   0.59475  -1.54741
  28                    3.76460  -0.44062  -0.63891   0.64656  -1.53741
  29                    3.76239  -0.43812  -0.60295   0.70137  -1.52344
  30                    3.76052  -0.43590  -0.56729   0.75857  -1.50531
  31                    3.75920  -0.43408  -0.53316   0.81718  -1.48279
  32                    3.75844  -0.43270  -0.50075   0.87603  -1.45615
  33                    3.75832  -0.43179  -0.47049   0.93354  -1.42619
  34                    3.75889  -0.43139  -0.44275   0.98774  -1.39438
  35                    3.76031  -0.43153  -0.41774   1.03604  -1.36330
  36                    3.76264  -0.43213  -0.39433   1.07824  -1.33486
  37                    3.76561  -0.43294  -0.37193   1.11797  -1.30704
  38                    3.76912  -0.43387  -0.35165   1.15697  -1.27879
  39                    3.77323  -0.43490  -0.33466   1.19578  -1.25074
  40                    3.77804  -0.43604  -0.32193   1.23387  -1.22373
  41                    3.78370  -0.43731  -0.31405   1.27022  -1.19799
  42                    3.79048  -0.43876  -0.31147   1.30383  -1.17333
  43                    3.79881  -0.44046  -0.31476   1.33350  -1.14970
  44                    3.80917  -0.44254  -0.32434   1.35741  -1.12773
  45                    3.82175  -0.44508  -0.33941   1.37302  -1.10913
  46                    3.83596  -0.44810  -0.35725   1.37876  -1.09579
  47                    3.85070  -0.45153  -0.37488   1.37580  -1.08798
  48                    3.86520  -0.45531  -0.39095   1.36672  -1.08437
  49                    3.87909  -0.45941  -0.40536   1.35379  -1.08331
  50                    3.89221  -0.46384  -0.41838   1.33851  -1.08353
  51                    3.90451  -0.46860  -0.43029   1.32182  -1.08421
  52                    3.91600  -0.47370  -0.44129   1.30426  -1.08491
  53                    3.92667  -0.47915  -0.45154   1.28610  -1.08546
  54                    3.93654  -0.48498  -0.46117   1.26747  -1.08590
  55                    3.94563  -0.49122  -0.47031   1.24838  -1.08640
  56                    3.95395  -0.49792  -0.47909   1.22878  -1.08726
  57                    3.96152  -0.50510  -0.48767   1.20858  -1.08887
  58                    3.96839  -0.51284  -0.49622   1.18766  -1.09172
  59                    3.97459  -0.52119  -0.50498   1.16587  -1.09648
  60                    3.98021  -0.53023  -0.51422   1.14304  -1.10397
  61                    3.98536  -0.54000  -0.52425   1.11903  -1.11524
  62                    3.99027  -0.55045  -0.53540   1.09383  -1.13137
  63                    3.99529  -0.56137  -0.54783   1.06768  -1.15312
  64                    4.00081  -0.57233  -0.56143   1.04114  -1.18028
  65                    4.00713  -0.58294  -0.57571   1.01491  -1.21147
  66                    4.01439  -0.59297  -0.59015   0.98941  -1.24480
  67                    4.02265  -0.60234  -0.60434   0.96480  -1.27864
  68                    4.03194  -0.61112  -0.61809   0.94101  -1.31197
                          X12       Y12       Z12
   1                   -1.61174   3.51327  -0.09129
   2                   -1.61357   3.48210  -0.09841
   3                   -1.61969   3.45792  -0.10433
   4                   -1.62781   3.43591  -0.11005
   5                   -1.63766   3.41438  -0.11607
   6                   -1.64937   3.39241  -0.12285
   7                   -1.66309   3.36962  -0.13087
   8                   -1.67841   3.34650  -0.14039
   9                   -1.69381   3.32445  -0.15083
  10                   -1.70768   3.30455  -0.16107
  11                   -1.71942   3.28693  -0.17032
  12                   -1.72911   3.27131  -0.17835
  13                   -1.73705   3.25738  -0.18514
  14                   -1.74348   3.24508  -0.19076
  15                   -1.74850   3.23477  -0.19525
  16                   -1.75234   3.22652  -0.19876
  17                   -1.75540   3.21984  -0.20164
  18                   -1.75801   3.21419  -0.20414
  19                   -1.76037   3.20920  -0.20645
  20                   -1.76262   3.20467  -0.20866
  21                   -1.76482   3.20048  -0.21084
  22                   -1.76705   3.19659  -0.21301
  23                   -1.76933   3.19296  -0.21520
  24                   -1.77171   3.18960  -0.21742
  25                   -1.77419   3.18653  -0.21965
  26                   -1.77680   3.18380  -0.22187
  27                   -1.77950   3.18146  -0.22407
  28                   -1.78224   3.17957  -0.22614
  29                   -1.78493   3.17813  -0.22798
  30                   -1.78759   3.17718  -0.22965
  31                   -1.79007   3.17681  -0.23107
  32                   -1.79229   3.17702  -0.23221
  33                   -1.79416   3.17777  -0.23301
  34                   -1.79554   3.17907  -0.23346
  35                   -1.79629   3.18088  -0.23351
  36                   -1.79660   3.18308  -0.23320
  37                   -1.79689   3.18564  -0.23266
  38                   -1.79727   3.18871  -0.23194
  39                   -1.79783   3.19242  -0.23099
  40                   -1.79863   3.19689  -0.22980
  41                   -1.79975   3.20232  -0.22831
  42                   -1.80132   3.20904  -0.22640
  43                   -1.80352   3.21755  -0.22392
  44                   -1.80658   3.22849  -0.22063
  45                   -1.81068   3.24225  -0.21635
  46                   -1.81565   3.25835  -0.21115
  47                   -1.82109   3.27569  -0.20532
  48                   -1.82665   3.29342  -0.19911
  49                   -1.83214   3.31111  -0.19268
  50                   -1.83750   3.32860  -0.18607
  51                   -1.84270   3.34587  -0.17930
  52                   -1.84775   3.36296  -0.17237
  53                   -1.85270   3.37995  -0.16527
  54                   -1.85760   3.39697  -0.15795
  55                   -1.86249   3.41416  -0.15040
  56                   -1.86742   3.43168  -0.14256
  57                   -1.87241   3.44969  -0.13441
  58                   -1.87747   3.46836  -0.12593
  59                   -1.88260   3.48787  -0.11709
  60                   -1.88779   3.50848  -0.10786
  61                   -1.89305   3.53046  -0.09828
  62                   -1.89834   3.55388  -0.08847
  63                   -1.90342   3.57837  -0.07880
  64                   -1.90792   3.60290  -0.06980
  65                   -1.91155   3.62640  -0.06184
  66                   -1.91423   3.64837  -0.05496
  67                   -1.91604   3.66881  -0.04901
  68                   -1.91705   3.68793  -0.04378
 --------------------------------------------------------------------------
 
 Total number of points:                   67
 Total number of gradient calculations:    71
 Total number of Hessian calculations:     68
 IRC-IRC-IRC-IRC-IRC-IRC-IRC-IRC-IRC-IRC-IRC-IRC-IRC-IRC-IRC-IRC-IRC-IRC
                          Input orientation:                          
 ---------------------------------------------------------------------
 Center     Atomic      Atomic             Coordinates (Angstroms)
 Number     Number       Type             X           Y           Z
 ---------------------------------------------------------------------
      1          6           0        0.441942   -0.911580   -0.153909
      2          6           0       -0.733210   -0.005675   -0.448291
      3          6           0       -1.652239    0.498261    0.633030
      4          8           0        1.674298   -0.274108   -0.453769
      5          8           0        1.854341    0.785838    0.538477
      6          8           0       -2.049428   -0.544648   -0.029393
      7          1           0        2.747944    0.560889    0.855724
      8          1           0        0.426100   -1.264018    0.885199
      9          1           0        0.445092   -1.779887   -0.826579
     10          1           0       -1.580988    4.011598   -0.642175
     11          1           0       -0.761417    0.469634   -1.425857
     12          1           0       -1.611911    3.513073   -0.091305
 ---------------------------------------------------------------------
                    Distance matrix (angstroms):
                    1          2          3          4          5
     1  C    0.000000
     2  C    1.512716   0.000000
     3  C    2.644338   1.505929   0.000000
     4  O    1.419503   2.422433   3.583788   0.000000
     5  O    2.314195   2.880213   3.519623   1.463029   0.000000
     6  O    2.521323   1.482699   1.297776   3.757582   4.163182
     7  H    2.916362   3.760303   4.406259   1.888043   0.974563
     8  H    1.097365   2.169245   2.736551   2.081047   2.522300
     9  H    1.098386   2.163175   3.423334   1.979218   3.229908
    10  H    5.344936   4.110329   3.738283   5.385134   4.858081
    11  H    2.230175   1.087359   2.243524   2.725953   3.286455
    12  H    4.878503   3.644330   3.100868   5.027255   4.455261
                    6          7          8          9         10
     6  O    0.000000
     7  H    5.002042   0.000000
     8  H    2.735363   2.953322   0.000000
     9  H    2.895506   3.689512   1.787923   0.000000
    10  H    4.621073   5.735045   5.847512   6.138428   0.000000
    11  H    2.153567   4.186831   3.123576   2.622049   3.719054
    12  H    4.081710   5.349822   5.284662   5.726021   0.743600
                   11         12
    11  H    0.000000
    12  H    3.430290   0.000000
 Symmetry turned off by external request.
 Stoichiometry    C3H6O3
 Framework group  C1[X(C3H6O3)]
 Deg. of freedom    30
 Full point group                 C1      NOp   1
 Rotational constants (GHZ):           6.1173780           2.1085136           1.7541537

 **********************************************************************

            Population analysis using the SCF Density.

 **********************************************************************

 Alpha  occ. eigenvalues --  -19.26182 -19.24032 -19.23162 -10.28935 -10.27328
 Alpha  occ. eigenvalues --  -10.27214  -1.17387  -1.14287  -0.94610  -0.75759
 Alpha  occ. eigenvalues --   -0.66022  -0.61090  -0.56150  -0.52895  -0.49937
 Alpha  occ. eigenvalues --   -0.48495  -0.46918  -0.42714  -0.40487  -0.39561
 Alpha  occ. eigenvalues --   -0.37317  -0.34148  -0.28918  -0.26621
 Alpha virt. eigenvalues --   -0.07546  -0.01943  -0.00071   0.01449   0.02562
 Alpha virt. eigenvalues --    0.04173   0.05190   0.05729   0.07154   0.08353
 Alpha virt. eigenvalues --    0.09530   0.10129   0.11594   0.12152   0.13077
 Alpha virt. eigenvalues --    0.15430   0.16515   0.17769   0.18869   0.19981
 Alpha virt. eigenvalues --    0.20143   0.21188   0.22666   0.23806   0.25408
 Alpha virt. eigenvalues --    0.25749   0.26590   0.28331   0.29512   0.29845
 Alpha virt. eigenvalues --    0.32316   0.33630   0.35133   0.36559   0.38385
 Alpha virt. eigenvalues --    0.39612   0.60936   0.63518   0.65497   0.66553
 Alpha virt. eigenvalues --    0.70831   0.73470   0.73732   0.75649   0.77417
 Alpha virt. eigenvalues --    0.88739   0.93229   0.96003   1.01279   1.03471
 Alpha virt. eigenvalues --    1.05497   1.09143   1.11826   1.15717   1.17255
 Alpha virt. eigenvalues --    1.18173   1.19705   1.21597   1.23300   1.25997
 Alpha virt. eigenvalues --    1.27683   1.31547   1.33586   1.41301   1.45175
 Alpha virt. eigenvalues --    1.48465   1.52346   1.55330   1.57002   1.64183
 Alpha virt. eigenvalues --    1.66516   1.68316   1.77403   1.80964   1.86970
 Alpha virt. eigenvalues --    1.88848   1.91204   1.95744   2.00522   2.04397
 Alpha virt. eigenvalues --    2.09095   2.21287   2.24050   2.29209   2.32871
 Alpha virt. eigenvalues --    2.37757   2.41287   2.47810   2.52235   2.55175
 Alpha virt. eigenvalues --    2.60623   2.69012   2.85196   2.94627   2.96563
 Alpha virt. eigenvalues --    3.12198   3.98346   4.09491   4.19392   4.25712
 Alpha virt. eigenvalues --    4.34683   4.47390
          Condensed to atoms (all electrons):
               1          2          3          4          5          6
     1  C    6.064141  -0.157280  -0.556684   0.111348  -0.119405  -0.052644
     2  C   -0.157280   6.694203  -0.731623  -0.057331   0.065598   0.110027
     3  C   -0.556684  -0.731623   7.333420   0.033212  -0.002170   0.036756
     4  O    0.111348  -0.057331   0.033212   8.062613   0.099533   0.009003
     5  O   -0.119405   0.065598  -0.002170   0.099533   8.277793   0.001340
     6  O   -0.052644   0.110027   0.036756   0.009003   0.001340   8.063176
     7  H    0.012504  -0.007477   0.000406  -0.029197   0.181329  -0.000011
     8  H    0.416800  -0.141725   0.041071  -0.028637  -0.000295   0.013019
     9  H    0.417130  -0.047879  -0.011511  -0.051604   0.009683  -0.004464
    10  H    0.006673   0.008019  -0.009315  -0.000048   0.000032  -0.000238
    11  H   -0.041385   0.322189   0.024977   0.008245  -0.000912  -0.025638
    12  H    0.009426   0.005772  -0.006232  -0.000078   0.000038  -0.000498
               7          8          9         10         11         12
     1  C    0.012504   0.416800   0.417130   0.006673  -0.041385   0.009426
     2  C   -0.007477  -0.141725  -0.047879   0.008019   0.322189   0.005772
     3  C    0.000406   0.041071  -0.011511  -0.009315   0.024977  -0.006232
     4  O   -0.029197  -0.028637  -0.051604  -0.000048   0.008245  -0.000078
     5  O    0.181329  -0.000295   0.009683   0.000032  -0.000912   0.000038
     6  O   -0.000011   0.013019  -0.004464  -0.000238  -0.025638  -0.000498
     7  H    0.359730   0.001292  -0.000241   0.000000   0.000003   0.000001
     8  H    0.001292   0.519293  -0.030529  -0.000000   0.003392  -0.000000
     9  H   -0.000241  -0.030529   0.502380  -0.000000  -0.002358  -0.000000
    10  H    0.000000  -0.000000  -0.000000   0.618817  -0.000048   0.394566
    11  H    0.000003   0.003392  -0.002358  -0.000048   0.489020  -0.000068
    12  H    0.000001  -0.000000  -0.000000   0.394566  -0.000068   0.563690
 Mulliken charges:
               1
     1  C   -0.110623
     2  C   -0.062495
     3  C   -0.152307
     4  O   -0.157060
     5  O   -0.512566
     6  O   -0.149828
     7  H    0.481661
     8  H    0.206319
     9  H    0.219391
    10  H   -0.018458
    11  H    0.222583
    12  H    0.033384
 Sum of Mulliken charges =  -0.00000
 Mulliken charges with hydrogens summed into heavy atoms:
               1
     1  C    0.315087
     2  C    0.160087
     3  C   -0.137381
     4  O   -0.157060
     5  O   -0.030905
     6  O   -0.149828
 APT charges:
               1
     1  C   -0.530009
     2  C   -0.257245
     3  C   -0.281092
     4  O   -0.179129
     5  O   -0.825566
     6  O   -0.125187
     7  H    0.816828
     8  H    0.385708
     9  H    0.504856
    10  H    0.668065
    11  H    0.469008
    12  H   -0.646237
 Sum of APT charges =  -0.00000
 APT charges with hydrogens summed into heavy atoms:
               1
     1  C    0.360555
     2  C    0.211763
     3  C   -0.259264
     4  O   -0.179129
     5  O   -0.008738
     6  O   -0.125187
 Electronic spatial extent (au):  <R**2>=            719.7351
 Charge=             -0.0000 electrons
 Dipole moment (field-independent basis, Debye):
    X=              1.9049    Y=             -1.7445    Z=             -0.6111  Tot=              2.6543
 Quadrupole moment (field-independent basis, Debye-Ang):
   XX=            -36.7775   YY=            -37.6505   ZZ=            -36.6239
   XY=             -0.0397   XZ=              6.2381   YZ=             -1.6538
 Traceless Quadrupole moment (field-independent basis, Debye-Ang):
   XX=              0.2398   YY=             -0.6332   ZZ=              0.3934
   XY=             -0.0397   XZ=              6.2381   YZ=             -1.6538
 Octapole moment (field-independent basis, Debye-Ang**2):
  XXX=             44.3637  YYY=            -16.5522  ZZZ=             -3.0267  XYY=              5.9183
  XXY=             -0.1862  XXZ=              8.0529  XZZ=              8.0225  YZZ=             -5.6901
  YYZ=             -3.5994  XYZ=              4.6359
 Hexadecapole moment (field-independent basis, Debye-Ang**3):
 XXXX=           -495.7559 YYYY=           -285.0706 ZZZZ=            -96.6501 XXXY=             39.7115
 XXXZ=             43.4389 YYYX=             19.5726 YYYZ=            -15.2441 ZZZX=             11.0612
 ZZZY=            -13.0688 XXYY=           -149.5645 XXZZ=           -105.5855 YYZZ=            -61.1464
 XXYZ=             -4.8663 YYXZ=              5.3305 ZZXY=             11.2031
 N-N= 2.364784203846D+02 E-N=-1.276571959200D+03  KE= 3.402928662087D+02
  Exact polarizability:   0.000   0.000   0.000   0.000   0.000   0.000
 Approx polarizability:  72.415   4.569  69.163  -5.099   4.689  69.800

 This type of calculation cannot be archived.


 MY DESCRIPTION OF EXPERIENCE IS NOT WHAT HAPPENS
 TO A MAN.  EXPERIENCE IS WHAT A MAN DOES WITH WHAT
 HAPPENS TO HIM.
                         - CHUCK KNOX, SEATTLE SEAHAWKS, 1985
 Job cpu time:       0 days  4 hours 38 minutes 22.0 seconds.
 Elapsed time:       0 days  0 hours 17 minutes 57.8 seconds.
 File lengths (MBytes):  RWF=     28 Int=      0 D2E=      0 Chk=      4 Scr=      1
 Normal termination of Gaussian 16 at Wed Dec 23 22:34:48 2020.
