 Entering Gaussian System, Link 0=g16
 Initial command:
 /apps/cent7/gaussian/g16-B.01/g16-haswell/g16/l1.exe "/scratch/bell/zhao922/YARP/paper-example/KHP-network/pp_0/IRC-folder/Gau-71908.inp" -scrdir="/scratch/bell/zhao922/YARP/paper-example/KHP-network/pp_0/IRC-folder/"
 Entering Link 1 = /apps/cent7/gaussian/g16-B.01/g16-haswell/g16/l1.exe PID=     71909.
  
 Copyright (c) 1988-2017, Gaussian, Inc.  All Rights Reserved.
  
 This is part of the Gaussian(R) 16 program.  It is based on
 the Gaussian(R) 09 system (copyright 2009, Gaussian, Inc.),
 the Gaussian(R) 03 system (copyright 2003, Gaussian, Inc.),
 the Gaussian(R) 98 system (copyright 1998, Gaussian, Inc.),
 the Gaussian(R) 94 system (copyright 1995, Gaussian, Inc.),
 the Gaussian 92(TM) system (copyright 1992, Gaussian, Inc.),
 the Gaussian 90(TM) system (copyright 1990, Gaussian, Inc.),
 the Gaussian 88(TM) system (copyright 1988, Gaussian, Inc.),
 the Gaussian 86(TM) system (copyright 1986, Carnegie Mellon
 University), and the Gaussian 82(TM) system (copyright 1983,
 Carnegie Mellon University). Gaussian is a federally registered
 trademark of Gaussian, Inc.
  
 This software contains proprietary and confidential information,
 including trade secrets, belonging to Gaussian, Inc.
  
 This software is provided under written license and may be
 used, copied, transmitted, or stored only in accord with that
 written license.
  
 The following legend is applicable only to US Government
 contracts under FAR:
  
                    RESTRICTED RIGHTS LEGEND
  
 Use, reproduction and disclosure by the US Government is
 subject to restrictions as set forth in subparagraphs (a)
 and (c) of the Commercial Computer Software - Restricted
 Rights clause in FAR 52.227-19.
  
 Gaussian, Inc.
 340 Quinnipiac St., Bldg. 40, Wallingford CT 06492
  
  
 ---------------------------------------------------------------
 Warning -- This program may not be used in any manner that
 competes with the business of Gaussian, Inc. or will provide
 assistance to any competitor of Gaussian, Inc.  The licensee
 of this program is prohibited from giving any competitor of
 Gaussian, Inc. access to this program.  By using this program,
 the user acknowledges that Gaussian, Inc. is engaged in the
 business of creating and licensing software in the field of
 computational chemistry and represents and warrants to the
 licensee that it is not a competitor of Gaussian, Inc. and that
 it will not use this program in any manner prohibited above.
 ---------------------------------------------------------------
  

 Cite this work as:
 Gaussian 16, Revision B.01,
 M. J. Frisch, G. W. Trucks, H. B. Schlegel, G. E. Scuseria, 
 M. A. Robb, J. R. Cheeseman, G. Scalmani, V. Barone, 
 G. A. Petersson, H. Nakatsuji, X. Li, M. Caricato, A. V. Marenich, 
 J. Bloino, B. G. Janesko, R. Gomperts, B. Mennucci, H. P. Hratchian, 
 J. V. Ortiz, A. F. Izmaylov, J. L. Sonnenberg, D. Williams-Young, 
 F. Ding, F. Lipparini, F. Egidi, J. Goings, B. Peng, A. Petrone, 
 T. Henderson, D. Ranasinghe, V. G. Zakrzewski, J. Gao, N. Rega, 
 G. Zheng, W. Liang, M. Hada, M. Ehara, K. Toyota, R. Fukuda, 
 J. Hasegawa, M. Ishida, T. Nakajima, Y. Honda, O. Kitao, H. Nakai, 
 T. Vreven, K. Throssell, J. A. Montgomery, Jr., J. E. Peralta, 
 F. Ogliaro, M. J. Bearpark, J. J. Heyd, E. N. Brothers, K. N. Kudin, 
 V. N. Staroverov, T. A. Keith, R. Kobayashi, J. Normand, 
 K. Raghavachari, A. P. Rendell, J. C. Burant, S. S. Iyengar, 
 J. Tomasi, M. Cossi, J. M. Millam, M. Klene, C. Adamo, R. Cammi, 
 J. W. Ochterski, R. L. Martin, K. Morokuma, O. Farkas, 
 J. B. Foresman, and D. J. Fox, Gaussian, Inc., Wallingford CT, 2016.
 
 ******************************************
 Gaussian 16:  ES64L-G16RevB.01 20-Dec-2017
                23-Dec-2020 
 ******************************************
 %NProcShared=16
 Will use up to   16 processors via shared memory.
 %Mem=6GB
 ----------------------------------------------------------------------
 # B3LYP/6-31+G* IRC=(CALCALL, maxpoints=40, StepSize=15, maxcyc=100, R
 eport=Cartesians)
 ----------------------------------------------------------------------
 1/6=100,10=4,18=10,26=3,38=1,39=15,42=40,44=3,71=1,129=10,172=1/1,23;
 2/12=2,17=6,18=5,29=1,40=1/2;
 3/5=1,6=6,7=11,11=2,25=1,30=1,71=2,74=-5,140=1/1,2,3;
 4//1;
 5/5=2,38=5/2;
 8/6=4,10=90,11=11/1;
 11/6=1,8=1,9=11,15=111,16=1/1,2,10;
 10/6=1,13=1/2;
 6/7=2,8=2,9=2,10=2,18=1,28=1/1;
 7/10=1,25=1/1,2,3,16;
 1/6=100,10=4,18=10,26=3,39=15,42=40,44=3,71=1,129=10/23(2);
 2/29=1/2;
 99/5=20/99;
 2/29=1/2;
 3/5=1,6=6,7=11,11=2,25=1,30=1,71=2,74=-5,140=1/1,2,3;
 4/5=5,16=3,69=1/1;
 5/5=2,38=5/2;
 8/6=4,10=90,11=11/1;
 11/6=1,8=1,9=11,15=111,16=1/1,2,10;
 10/6=1,13=1/2;
 7/10=1,25=1/1,2,3,16;
 1/6=100,10=4,18=10,26=3,39=15,42=40,44=3,71=1,129=10/23(-8);
 2/29=1/2;
 6/7=2,8=2,9=2,10=2,18=1,19=2,28=1/1;
 99/5=20/99;
 -----------
 pp_20_0 IRC
 -----------
 Symbolic Z-matrix:
 Charge =  0 Multiplicity = 1
 C                    -0.86592   1.01837   0.32399 
 C                     0.49756   0.92144  -0.25984 
 C                     1.41458  -0.03031   0.19189 
 O                    -1.80573   0.07907  -0.29817 
 O                    -1.34433  -1.24679   0.08824 
 O                     2.54467  -0.42558  -0.13465 
 H                    -1.3716   -1.70198  -0.77483 
 H                    -0.89948   0.83475   1.40493 
 H                    -1.34251   1.98038   0.11846 
 H                     0.4296   -0.85962   0.37008 
 H                     1.01058  -0.46689   1.24836 
 H                     0.73925   1.50277  -1.14658 
 
 IRC-IRC-IRC-IRC-IRC-IRC-IRC-IRC-IRC-IRC-IRC-IRC-IRC-IRC-IRC-IRC-IRC-IRC
 ------------------------------------------------------------------------
 INPUT DATA FOR L123
 ------------------------------------------------------------------------
 GENERAL PARAMETERS:
 Follow reaction path in both directions.
 Maximum points per path      =  40
 Step size                    =   0.150 bohr
 Integration scheme           = HPC                                 
    Redo corrector integration= Yes                                 
    DWI Weight Power          =  2
    DWI will use Hessian update vectors when possible.
    Max correction cycles     = 100
 Initial Hessian              = CalcFC
 Hessian evaluation           = Analytic at all predictor steps
                              = Update at all corrector steps
 Hessian updating method      = Bofill                              
 ------------------------------------------------------------------------
 IRC-IRC-IRC-IRC-IRC-IRC-IRC-IRC-IRC-IRC-IRC-IRC-IRC-IRC-IRC-IRC-IRC-IRC
                          Input orientation:                          
 ---------------------------------------------------------------------
 Center     Atomic      Atomic             Coordinates (Angstroms)
 Number     Number       Type             X           Y           Z
 ---------------------------------------------------------------------
      1          6           0       -0.865923    1.018374    0.323989
      2          6           0        0.497555    0.921443   -0.259840
      3          6           0        1.414582   -0.030314    0.191891
      4          8           0       -1.805732    0.079071   -0.298172
      5          8           0       -1.344326   -1.246790    0.088236
      6          8           0        2.544668   -0.425582   -0.134646
      7          1           0       -1.371599   -1.701982   -0.774833
      8          1           0       -0.899479    0.834749    1.404928
      9          1           0       -1.342514    1.980375    0.118464
     10          1           0        0.429597   -0.859618    0.370075
     11          1           0        1.010580   -0.466893    1.248363
     12          1           0        0.739250    1.502765   -1.146581
 ---------------------------------------------------------------------
                    Distance matrix (angstroms):
                    1          2          3          4          5
     1  C    0.000000
     2  C    1.486380   0.000000
     3  C    2.513543   1.396725   0.000000
     4  O    1.467179   2.452792   3.259225   0.000000
     5  O    2.327105   2.866168   3.016974   1.456061   0.000000
     6  O    3.731955   2.453736   1.240950   4.382624   3.980997
     7  H    2.977155   3.262103   3.389961   1.894156   0.976131
     8  H    1.096938   2.175011   2.752212   2.071930   2.502873
     9  H    1.093081   2.156457   3.413186   2.000778   3.227307
    10  H    2.281962   1.890394   1.299881   2.514833   1.837427
    11  H    2.565492   2.113137   1.212416   3.259058   2.738561
    12  H    2.230200   1.087502   2.144274   3.037044   3.664166
                    6          7          8          9         10
     6  O    0.000000
     7  H    4.168475   0.000000
     8  H    3.977546   3.377760   0.000000
     9  H    4.578524   3.789272   1.778687   0.000000
    10  H    2.217353   2.294493   2.389193   3.356970   0.000000
    11  H    2.065877   3.360587   2.316702   3.578106   1.123906
    12  H    2.828793   3.855423   3.105137   2.482376   2.824355
                   11         12
    11  H    0.000000
    12  H    3.112705   0.000000
 Symmetry turned off by external request.
 Stoichiometry    C3H6O3
 Framework group  C1[X(C3H6O3)]
 Deg. of freedom    30
 Full point group                 C1      NOp   1
 Rotational constants (GHZ):           7.0908341           2.1336345           1.7536442
 Standard basis: 6-31+G(d) (6D, 7F)
   126 basis functions,   216 primitive gaussians,   126 cartesian basis functions
    24 alpha electrons       24 beta electrons
       nuclear repulsion energy       239.9638121668 Hartrees.
 NAtoms=   12 NActive=   12 NUniq=   12 SFac= 1.00D+00 NAtFMM=   60 NAOKFM=F Big=F
 Integral buffers will be    131072 words long.
 Raffenetti 2 integral format.
 Two-electron integral symmetry is turned off.
 One-electron integrals computed using PRISM.
 NBasis=   126 RedAO= T EigKep=  9.93D-05  NBF=   126
 NBsUse=   126 1.00D-06 EigRej= -1.00D+00 NBFU=   126
 ExpMin= 4.38D-02 ExpMax= 5.48D+03 ExpMxC= 8.25D+02 IAcc=3 IRadAn=         5 AccDes= 0.00D+00
 Harris functional with IExCor=  402 and IRadAn=       5 diagonalized for initial guess.
 HarFok:  IExCor=  402 AccDes= 0.00D+00 IRadAn=         5 IDoV= 1 UseB2=F ITyADJ=14
 ICtDFT=  3500011 ScaDFX=  1.000000  1.000000  1.000000  1.000000
 FoFCou: FMM=F IPFlag=           0 FMFlag=      100000 FMFlg1=           0
         NFxFlg=           0 DoJE=T BraDBF=F KetDBF=T FulRan=T
         wScrn=  0.000000 ICntrl=       500 IOpCl=  0 I1Cent=   200000004 NGrid=           0
         NMat0=    1 NMatS0=      1 NMatT0=    0 NMatD0=    1 NMtDS0=    0 NMtDT0=    0
 Symmetry not used in FoFCou.
 Keep R1 ints in memory in canonical form, NReq=47237243.
 Requested convergence on RMS density matrix=1.00D-08 within 128 cycles.
 Requested convergence on MAX density matrix=1.00D-06.
 Requested convergence on             energy=1.00D-06.
 No special actions if energy rises.
 EnCoef did     2 forward-backward iterations
 SCF Done:  E(RB3LYP) =  -343.365092935     A.U. after   14 cycles
            NFock= 14  Conv=0.95D-08     -V/T= 2.0091
 DoSCS=F DFT=T ScalE2(SS,OS)=  1.000000  1.000000
 Range of M.O.s used for correlation:     1   126
 NBasis=   126 NAE=    24 NBE=    24 NFC=     0 NFV=     0
 NROrb=    126 NOA=    24 NOB=    24 NVA=   102 NVB=   102

 **** Warning!!: The largest alpha MO coefficient is  0.30505813D+02

 Symmetrizing basis deriv contribution to polar:
 IMax=3 JMax=2 DiffMx= 0.00D+00
 G2DrvN: will do    13 centers at a time, making    1 passes.
 Calling FoFCou, ICntrl=  3107 FMM=F I1Cent=   0 AccDes= 0.00D+00.
 End of G2Drv F.D. properties file   721 does not exist.
 End of G2Drv F.D. properties file   722 does not exist.
 End of G2Drv F.D. properties file   788 does not exist.
          IDoAtm=111111111111
          Differentiating once with respect to nuclear coordinates.
 Keep R1 ints in memory in canonical form, NReq=47193258.
          There are    39 degrees of freedom in the 1st order CPHF.  IDoFFX=6 NUNeed=     0.
     33 vectors produced by pass  0 Test12= 6.28D-15 2.56D-09 XBig12= 2.25D-01 1.61D-01.
 AX will form    33 AO Fock derivatives at one time.
     33 vectors produced by pass  1 Test12= 6.28D-15 2.56D-09 XBig12= 2.05D-02 3.60D-02.
     33 vectors produced by pass  2 Test12= 6.28D-15 2.56D-09 XBig12= 3.77D-04 4.63D-03.
     33 vectors produced by pass  3 Test12= 6.28D-15 2.56D-09 XBig12= 2.45D-06 2.42D-04.
     33 vectors produced by pass  4 Test12= 6.28D-15 2.56D-09 XBig12= 4.03D-09 1.35D-05.
     30 vectors produced by pass  5 Test12= 6.28D-15 2.56D-09 XBig12= 4.45D-12 2.90D-07.
      6 vectors produced by pass  6 Test12= 6.28D-15 2.56D-09 XBig12= 4.00D-15 9.05D-09.
 InvSVY:  IOpt=1 It=  1 EMax= 1.67D-15
 Solved reduced A of dimension   201 with    33 vectors.
 End of Minotr F.D. properties file   721 does not exist.
 End of Minotr F.D. properties file   722 does not exist.
 End of Minotr F.D. properties file   788 does not exist.

 **********************************************************************

            Population analysis using the SCF Density.

 **********************************************************************

 Alpha  occ. eigenvalues --  -19.26941 -19.25458 -19.12103 -10.29131 -10.27876
 Alpha  occ. eigenvalues --  -10.22594  -1.16580  -1.02095  -0.95849  -0.82111
 Alpha  occ. eigenvalues --   -0.70140  -0.62881  -0.57801  -0.51842  -0.51255
 Alpha  occ. eigenvalues --   -0.48743  -0.43989  -0.42124  -0.41879  -0.40077
 Alpha  occ. eigenvalues --   -0.37766  -0.30666  -0.26696  -0.23656
 Alpha virt. eigenvalues --   -0.08448  -0.03468  -0.00179   0.00907   0.01358
 Alpha virt. eigenvalues --    0.03482   0.04914   0.06032   0.07303   0.08216
 Alpha virt. eigenvalues --    0.09316   0.10729   0.11361   0.12841   0.13492
 Alpha virt. eigenvalues --    0.14995   0.15737   0.17091   0.17986   0.18990
 Alpha virt. eigenvalues --    0.20761   0.21961   0.22768   0.22980   0.25680
 Alpha virt. eigenvalues --    0.26954   0.27774   0.29214   0.31357   0.31954
 Alpha virt. eigenvalues --    0.33324   0.33856   0.36092   0.38417   0.39272
 Alpha virt. eigenvalues --    0.43881   0.59161   0.64800   0.66910   0.70212
 Alpha virt. eigenvalues --    0.75099   0.76362   0.80957   0.81883   0.86706
 Alpha virt. eigenvalues --    0.91423   0.93432   0.96723   1.00567   1.01221
 Alpha virt. eigenvalues --    1.06270   1.08181   1.09130   1.13689   1.16217
 Alpha virt. eigenvalues --    1.17887   1.23899   1.25476   1.29754   1.31656
 Alpha virt. eigenvalues --    1.32927   1.34511   1.36588   1.39433   1.42788
 Alpha virt. eigenvalues --    1.50722   1.53867   1.57690   1.64886   1.68840
 Alpha virt. eigenvalues --    1.71420   1.73682   1.79563   1.80691   1.84923
 Alpha virt. eigenvalues --    1.88612   1.92990   1.95454   1.97623   2.02798
 Alpha virt. eigenvalues --    2.07724   2.12099   2.14803   2.25663   2.29255
 Alpha virt. eigenvalues --    2.39472   2.44107   2.45884   2.49138   2.61314
 Alpha virt. eigenvalues --    2.67293   2.78174   2.82993   2.93364   3.09371
 Alpha virt. eigenvalues --    3.15524   3.90233   4.18118   4.22121   4.23715
 Alpha virt. eigenvalues --    4.42551   4.51537
          Condensed to atoms (all electrons):
               1          2          3          4          5          6
     1  C    5.986154  -0.605274   0.140785   0.177773  -0.207264   0.039098
     2  C   -0.605274   6.574190   0.107652  -0.141952   0.217641  -0.193025
     3  C    0.140785   0.107652   5.227654   0.011890  -0.060975   0.368256
     4  O    0.177773  -0.141952   0.011890   8.202623  -0.039947   0.000132
     5  O   -0.207264   0.217641  -0.060975  -0.039947   8.487786  -0.001283
     6  O    0.039098  -0.193025   0.368256   0.000132  -0.001283   8.387254
     7  H    0.030306  -0.027312   0.006859  -0.023789   0.184490   0.000134
     8  H    0.418505  -0.069069  -0.018916  -0.041128  -0.010058  -0.000107
     9  H    0.383427  -0.013815  -0.005823  -0.048485   0.011934  -0.000129
    10  H    0.087758  -0.092150   0.075720   0.000689  -0.027806  -0.038112
    11  H    0.121216  -0.238703   0.216430   0.023579  -0.053363  -0.048709
    12  H   -0.037334   0.371218  -0.023416   0.005892  -0.004112  -0.006308
               7          8          9         10         11         12
     1  C    0.030306   0.418505   0.383427   0.087758   0.121216  -0.037334
     2  C   -0.027312  -0.069069  -0.013815  -0.092150  -0.238703   0.371218
     3  C    0.006859  -0.018916  -0.005823   0.075720   0.216430  -0.023416
     4  O   -0.023789  -0.041128  -0.048485   0.000689   0.023579   0.005892
     5  O    0.184490  -0.010058   0.011934  -0.027806  -0.053363  -0.004112
     6  O    0.000134  -0.000107  -0.000129  -0.038112  -0.048709  -0.006308
     7  H    0.314689  -0.000077  -0.000346   0.001960   0.001854   0.000173
     8  H   -0.000077   0.519215  -0.024684   0.002968   0.001157   0.003207
     9  H   -0.000346  -0.024684   0.476509   0.000808  -0.000375  -0.003714
    10  H    0.001960   0.002968   0.000808   0.660073   0.089501   0.003763
    11  H    0.001854   0.001157  -0.000375   0.089501   0.690374   0.003086
    12  H    0.000173   0.003207  -0.003714   0.003763   0.003086   0.468879
 Mulliken charges:
               1
     1  C   -0.535150
     2  C    0.110600
     3  C   -0.046114
     4  O   -0.127276
     5  O   -0.497044
     6  O   -0.507200
     7  H    0.511059
     8  H    0.218986
     9  H    0.224692
    10  H    0.234828
    11  H    0.193953
    12  H    0.218666
 Sum of Mulliken charges =  -0.00000
 Mulliken charges with hydrogens summed into heavy atoms:
               1
     1  C   -0.091471
     2  C    0.329266
     3  C    0.382667
     4  O   -0.127276
     5  O    0.014015
     6  O   -0.507200
 APT charges:
               1
     1  C   -1.110049
     2  C   -0.089853
     3  C   -0.417231
     4  O   -0.213153
     5  O   -0.556653
     6  O   -0.367730
     7  H    0.669471
     8  H    0.408681
     9  H    0.587315
    10  H    0.264654
    11  H    0.308155
    12  H    0.516392
 Sum of APT charges =  -0.00000
 APT charges with hydrogens summed into heavy atoms:
               1
     1  C   -0.114053
     2  C    0.426540
     3  C    0.155579
     4  O   -0.213153
     5  O    0.112817
     6  O   -0.367730
 Electronic spatial extent (au):  <R**2>=            661.3611
 Charge=             -0.0000 electrons
 Dipole moment (field-independent basis, Debye):
    X=             -3.7203    Y=              0.4068    Z=              0.2299  Tot=              3.7495
 Quadrupole moment (field-independent basis, Debye-Ang):
   XX=            -53.5488   YY=            -31.4767   ZZ=            -34.3731
   XY=              1.8681   XZ=              2.5486   YZ=              1.4595
 Traceless Quadrupole moment (field-independent basis, Debye-Ang):
   XX=            -13.7493   YY=              8.3229   ZZ=              5.4264
   XY=              1.8681   XZ=              2.5486   YZ=              1.4595
 Octapole moment (field-independent basis, Debye-Ang**2):
  XXX=            -40.5092  YYY=             -8.9100  ZZZ=             -1.1310  XYY=            -10.8447
  XXY=              5.2003  XXZ=              0.7615  XZZ=             -3.2803  YZZ=             -3.5959
  YYZ=             -7.5387  XYZ=             -6.8597
 Hexadecapole moment (field-independent basis, Debye-Ang**3):
 XXXX=           -684.3665 YYYY=           -174.8769 ZZZZ=            -68.1659 XXXY=             21.9382
 XXXZ=             11.0279 YYYX=              5.3383 YYYZ=              6.5946 ZZZX=              1.9663
 ZZZY=              1.3823 XXYY=           -120.4965 XXZZ=           -103.2330 YYZZ=            -38.9233
 XXYZ=              5.4962 YYXZ=              7.6715 ZZXY=              4.2420
 N-N= 2.399638121668D+02 E-N=-1.283922714362D+03  KE= 3.402731599532D+02
  Exact polarizability:   0.000   0.000   0.000   0.000   0.000   0.000
 Approx polarizability: 123.815 -27.287 103.047   4.836 -13.326  67.821
 Calling FoFJK, ICntrl=    100127 FMM=F ISym2X=0 I1Cent= 0 IOpClX= 0 NMat=1 NMatS=1 NMatT=0.
 -------------------------------------------------------------------
 Center     Atomic                   Forces (Hartrees/Bohr)
 Number     Number              X              Y              Z
 -------------------------------------------------------------------
      1        6           0.000000683    0.000000487    0.000001295
      2        6           0.000000382    0.000000498   -0.000000910
      3        6           0.000000694    0.000000406    0.000000480
      4        8          -0.000000754    0.000000408    0.000000172
      5        8          -0.000000204    0.000000517    0.000000092
      6        8           0.000000651   -0.000000572   -0.000001081
      7        1          -0.000000692    0.000000249   -0.000000278
      8        1           0.000000351   -0.000000047   -0.000000086
      9        1           0.000000436    0.000000344    0.000000499
     10        1          -0.000002298   -0.000002093   -0.000000099
     11        1           0.000000710    0.000000057   -0.000000509
     12        1           0.000000041   -0.000000256    0.000000425
 -------------------------------------------------------------------
 Cartesian Forces:  Max     0.000002298 RMS     0.000000736
 IRC-IRC-IRC-IRC-IRC-IRC-IRC-IRC-IRC-IRC-IRC-IRC-IRC-IRC-IRC-IRC-IRC-IRC
          ******** Start new reaction path calculation ********
 Supplied step size of   0.1500 bohr.
    Integration on MW PES will use step size of   0.1641 sqrt(amu)*bohr.
 Point Number:   0          Path Number:   1
 Calculating another point on the path.
 IRC-IRC-IRC-IRC-IRC-IRC-IRC-IRC-IRC-IRC-IRC-IRC-IRC-IRC-IRC-IRC-IRC-IRC
                          Input orientation:                          
 ---------------------------------------------------------------------
 Center     Atomic      Atomic             Coordinates (Angstroms)
 Number     Number       Type             X           Y           Z
 ---------------------------------------------------------------------
      1          6           0       -0.882054    1.033297    0.338034
      2          6           0        0.480810    0.935592   -0.247479
      3          6           0        1.396342   -0.020571    0.213846
      4          8           0       -1.821261    0.092961   -0.284883
      5          8           0       -1.360003   -1.232376    0.101506
      6          8           0        2.530140   -0.411234   -0.123173
      7          1           0       -1.390072   -1.688817   -0.761055
      8          1           0       -0.914050    0.848262    1.418487
      9          1           0       -1.359098    1.994883    0.132129
     10          1           0        0.408567   -0.832637    0.320753
     11          1           0        1.022462   -0.420189    1.271089
     12          1           0        0.717550    1.510130   -1.140674
 ---------------------------------------------------------------------
                    Distance matrix (angstroms):
                    1          2          3          4          5
     1  C    0.000000
     2  C    1.486530   0.000000
     3  C    2.513394   1.401880   0.000000
     4  O    1.467776   2.451725   3.258004   0.000000
     5  O    2.327586   2.865391   3.013060   1.455532   0.000000
     6  O    3.733960   2.455432   1.245672   4.383498   3.982207
     7  H    2.979259   3.263660   3.390808   1.894043   0.976348
     8  H    1.096651   2.174559   2.746624   2.072434   2.502473
     9  H    1.092984   2.156725   3.414847   2.001200   3.227404
    10  H    2.268857   1.858693   1.283191   2.489108   1.826390
    11  H    2.571069   2.106555   1.190480   3.281940   2.775556
    12  H    2.229950   1.088088   2.153724   3.030892   3.657947
                    6          7          8          9         10
     6  O    0.000000
     7  H    4.172190   0.000000
     8  H    3.978127   3.378428   0.000000
     9  H    4.580475   3.790565   1.779754   0.000000
    10  H    2.208104   2.266816   2.404112   3.339923   0.000000
    11  H    2.053568   3.399904   2.319649   3.577936   1.204208
    12  H    2.830624   3.849603   3.106363   2.483441   2.778452
                   11         12
    11  H    0.000000
    12  H    3.104142   0.000000
 Symmetry turned off by external request.
 Stoichiometry    C3H6O3
 Framework group  C1[X(C3H6O3)]
 Deg. of freedom    30
 Full point group                 C1      NOp   1
 Rotational constants (GHZ):           7.0908635           2.1326863           1.7537269
 Standard basis: 6-31+G(d) (6D, 7F)
   126 basis functions,   216 primitive gaussians,   126 cartesian basis functions
    24 alpha electrons       24 beta electrons
       nuclear repulsion energy       239.9474888291 Hartrees.
 NAtoms=   12 NActive=   12 NUniq=   12 SFac= 1.00D+00 NAtFMM=   60 NAOKFM=F Big=F
 Integral buffers will be    131072 words long.
 Raffenetti 2 integral format.
 Two-electron integral symmetry is turned off.
 One-electron integrals computed using PRISM.
 NBasis=   126 RedAO= T EigKep=  1.02D-04  NBF=   126
 NBsUse=   126 1.00D-06 EigRej= -1.00D+00 NBFU=   126
 Initial guess from the checkpoint file:  "/scratch/bell/zhao922/YARP/paper-example/KHP-network/pp_0/IRC-folder/Gau-71909.chk"
 B after Tr=    -0.029647    0.027415    0.024202
         Rot=    1.000000    0.000084   -0.000134   -0.000078 Ang=   0.02 deg.
 ExpMin= 4.38D-02 ExpMax= 5.48D+03 ExpMxC= 8.25D+02 IAcc=3 IRadAn=         5 AccDes= 0.00D+00
 Harris functional with IExCor=  402 and IRadAn=       5 diagonalized for initial guess.
 HarFok:  IExCor=  402 AccDes= 0.00D+00 IRadAn=         5 IDoV= 1 UseB2=F ITyADJ=14
 ICtDFT=  3500011 ScaDFX=  1.000000  1.000000  1.000000  1.000000
 FoFCou: FMM=F IPFlag=           0 FMFlag=      100000 FMFlg1=           0
         NFxFlg=           0 DoJE=T BraDBF=F KetDBF=T FulRan=T
         wScrn=  0.000000 ICntrl=       500 IOpCl=  0 I1Cent=   200000004 NGrid=           0
         NMat0=    1 NMatS0=      1 NMatT0=    0 NMatD0=    1 NMtDS0=    0 NMtDT0=    0
 Symmetry not used in FoFCou.
 Keep R1 ints in memory in canonical form, NReq=47237243.
 Requested convergence on RMS density matrix=1.00D-08 within 128 cycles.
 Requested convergence on MAX density matrix=1.00D-06.
 Requested convergence on             energy=1.00D-06.
 No special actions if energy rises.
 SCF Done:  E(RB3LYP) =  -343.365713542     A.U. after   13 cycles
            NFock= 13  Conv=0.44D-08     -V/T= 2.0091
 DoSCS=F DFT=T ScalE2(SS,OS)=  1.000000  1.000000
 Range of M.O.s used for correlation:     1   126
 NBasis=   126 NAE=    24 NBE=    24 NFC=     0 NFV=     0
 NROrb=    126 NOA=    24 NOB=    24 NVA=   102 NVB=   102

 **** Warning!!: The largest alpha MO coefficient is  0.31940230D+02

 Symmetrizing basis deriv contribution to polar:
 IMax=3 JMax=2 DiffMx= 0.00D+00
 G2DrvN: will do    13 centers at a time, making    1 passes.
 Calling FoFCou, ICntrl=  3107 FMM=F I1Cent=   0 AccDes= 0.00D+00.
 End of G2Drv F.D. properties file   721 does not exist.
 End of G2Drv F.D. properties file   722 does not exist.
 End of G2Drv F.D. properties file   788 does not exist.
          IDoAtm=111111111111
          Differentiating once with respect to nuclear coordinates.
 Keep R1 ints in memory in canonical form, NReq=47193258.
          There are    39 degrees of freedom in the 1st order CPHF.  IDoFFX=6 NUNeed=     0.
     33 vectors produced by pass  0 Test12= 6.28D-15 2.56D-09 XBig12= 2.33D-01 1.65D-01.
 AX will form    33 AO Fock derivatives at one time.
     33 vectors produced by pass  1 Test12= 6.28D-15 2.56D-09 XBig12= 2.13D-02 3.78D-02.
     33 vectors produced by pass  2 Test12= 6.28D-15 2.56D-09 XBig12= 3.84D-04 4.68D-03.
     33 vectors produced by pass  3 Test12= 6.28D-15 2.56D-09 XBig12= 2.67D-06 2.32D-04.
     33 vectors produced by pass  4 Test12= 6.28D-15 2.56D-09 XBig12= 4.51D-09 1.21D-05.
     30 vectors produced by pass  5 Test12= 6.28D-15 2.56D-09 XBig12= 4.99D-12 3.10D-07.
      5 vectors produced by pass  6 Test12= 6.28D-15 2.56D-09 XBig12= 4.57D-15 8.36D-09.
 InvSVY:  IOpt=1 It=  1 EMax= 1.33D-15
 Solved reduced A of dimension   200 with    33 vectors.
 End of Minotr F.D. properties file   721 does not exist.
 End of Minotr F.D. properties file   722 does not exist.
 End of Minotr F.D. properties file   788 does not exist.
 Calling FoFJK, ICntrl=    100127 FMM=F ISym2X=0 I1Cent= 0 IOpClX= 0 NMat=1 NMatS=1 NMatT=0.
 -------------------------------------------------------------------
 Center     Atomic                   Forces (Hartrees/Bohr)
 Number     Number              X              Y              Z
 -------------------------------------------------------------------
      1        6          -0.000393573    0.000812009    0.000619622
      2        6          -0.001070787   -0.000228283   -0.001045008
      3        6          -0.001297269   -0.003859604    0.008317487
      4        8           0.000426406   -0.000253974   -0.000161107
      5        8           0.000193750    0.000386207   -0.000328575
      6        8           0.001338769    0.000340468   -0.002708598
      7        1          -0.000283439   -0.000082696    0.000054753
      8        1           0.000131567   -0.000056897    0.000011738
      9        1          -0.000054382    0.000045469    0.000014281
     10        1          -0.000596667    0.001129496   -0.005522799
     11        1           0.002115871    0.002491626    0.001422114
     12        1          -0.000510246   -0.000723821   -0.000673908
 -------------------------------------------------------------------
 Cartesian Forces:  Max     0.008317487 RMS     0.002008701
 IRC-IRC-IRC-IRC-IRC-IRC-IRC-IRC-IRC-IRC-IRC-IRC-IRC-IRC-IRC-IRC-IRC-IRC
 Pt  1 Step number   1 out of a maximum of 100
 Modified Bulirsch-Stoer Extrapolation Cycles:
    EPS =    0.000010000000000
      PEZero:  N= 2 I= 1 D=  4.27D-04 Err=  9.55D-04
      PEZero:  N= 3 I= 2 D=  4.27D-04 Err=  6.37D-04
      PEZero:  N= 3 I= 1 D=  8.55D-04 Err=  1.79D-07
 Maximum DWI energy   std dev =  0.000005454 at pt     1
 Maximum DWI gradient std dev =  0.024925492 at pt    19
 CORRECTOR INTEGRATION CONVERGENCE:
   Recorrection delta-x convergence threshold:    0.010000
   Delta-x Convergence Met
 Point Number:   1          Path Number:   1
   CHANGE IN THE REACTION COORDINATE =    0.16409
   NET REACTION COORDINATE UP TO THIS POINT =    0.16409
  # OF POINTS ALONG THE PATH =   1
  # OF STEPS =   1

 Calculating another point on the path.
 IRC-IRC-IRC-IRC-IRC-IRC-IRC-IRC-IRC-IRC-IRC-IRC-IRC-IRC-IRC-IRC-IRC-IRC
                          Input orientation:                          
 ---------------------------------------------------------------------
 Center     Atomic      Atomic             Coordinates (Angstroms)
 Number     Number       Type             X           Y           Z
 ---------------------------------------------------------------------
      1          6           0       -0.882450    1.034086    0.338674
      2          6           0        0.479748    0.935120   -0.248473
      3          6           0        1.395203   -0.024201    0.222555
      4          8           0       -1.820975    0.092800   -0.284998
      5          8           0       -1.359861   -1.232072    0.101227
      6          8           0        2.531127   -0.410991   -0.125258
      7          1           0       -1.393867   -1.689972   -0.760598
      8          1           0       -0.912516    0.847642    1.418641
      9          1           0       -1.359679    1.995385    0.132276
     10          1           0        0.401244   -0.818183    0.256141
     11          1           0        1.047394   -0.390814    1.283453
     12          1           0        0.711248    1.500923   -1.149328
 ---------------------------------------------------------------------
                    Distance matrix (angstroms):
                    1          2          3          4          5
     1  C    0.000000
     2  C    1.486647   0.000000
     3  C    2.514191   1.407204   0.000000
     4  O    1.468270   2.450339   3.258082   0.000000
     5  O    2.328042   2.864118   3.010656   1.455020   0.000000
     6  O    3.735771   2.456696   1.249361   4.384075   3.983122
     7  H    2.981683   3.265549   3.394155   1.893909   0.976509
     8  H    1.096355   2.173781   2.741587   2.073034   2.502181
     9  H    1.092906   2.156994   3.417053   2.001685   3.227607
    10  H    2.255124   1.826162   1.272591   2.461906   1.815708
    11  H    2.578225   2.104072   1.175108   3.304763   2.810739
    12  H    2.229789   1.088699   2.162374   3.023579   3.650020
                    6          7          8          9         10
     6  O    0.000000
     7  H    4.176724   0.000000
     8  H    3.978248   3.379388   0.000000
     9  H    4.582067   3.792129   1.781012   0.000000
    10  H    2.201743   2.239687   2.419162   3.321499   0.000000
    11  H    2.046054   3.438853   2.322347   3.579546   1.286671
    12  H    2.831271   3.842451   3.107709   2.485104   2.729414
                   11         12
    11  H    0.000000
    12  H    3.100013   0.000000
 Symmetry turned off by external request.
 Stoichiometry    C3H6O3
 Framework group  C1[X(C3H6O3)]
 Deg. of freedom    30
 Full point group                 C1      NOp   1
 Rotational constants (GHZ):           7.0904696           2.1314280           1.7538145
 Standard basis: 6-31+G(d) (6D, 7F)
   126 basis functions,   216 primitive gaussians,   126 cartesian basis functions
    24 alpha electrons       24 beta electrons
       nuclear repulsion energy       239.9188526475 Hartrees.
 NAtoms=   12 NActive=   12 NUniq=   12 SFac= 1.00D+00 NAtFMM=   60 NAOKFM=F Big=F
 Integral buffers will be    131072 words long.
 Raffenetti 2 integral format.
 Two-electron integral symmetry is turned off.
 One-electron integrals computed using PRISM.
 NBasis=   126 RedAO= T EigKep=  1.04D-04  NBF=   126
 NBsUse=   126 1.00D-06 EigRej= -1.00D+00 NBFU=   126
 Initial guess from the checkpoint file:  "/scratch/bell/zhao922/YARP/paper-example/KHP-network/pp_0/IRC-folder/Gau-71909.chk"
 B after Tr=     0.000163    0.000651   -0.001177
         Rot=    1.000000    0.000090   -0.000126   -0.000063 Ang=   0.02 deg.
 ExpMin= 4.38D-02 ExpMax= 5.48D+03 ExpMxC= 8.25D+02 IAcc=3 IRadAn=         5 AccDes= 0.00D+00
 Harris functional with IExCor=  402 and IRadAn=       5 diagonalized for initial guess.
 HarFok:  IExCor=  402 AccDes= 0.00D+00 IRadAn=         5 IDoV= 1 UseB2=F ITyADJ=14
 ICtDFT=  3500011 ScaDFX=  1.000000  1.000000  1.000000  1.000000
 FoFCou: FMM=F IPFlag=           0 FMFlag=      100000 FMFlg1=           0
         NFxFlg=           0 DoJE=T BraDBF=F KetDBF=T FulRan=T
         wScrn=  0.000000 ICntrl=       500 IOpCl=  0 I1Cent=   200000004 NGrid=           0
         NMat0=    1 NMatS0=      1 NMatT0=    0 NMatD0=    1 NMtDS0=    0 NMtDT0=    0
 Symmetry not used in FoFCou.
 Keep R1 ints in memory in canonical form, NReq=47237243.
 Requested convergence on RMS density matrix=1.00D-08 within 128 cycles.
 Requested convergence on MAX density matrix=1.00D-06.
 Requested convergence on             energy=1.00D-06.
 No special actions if energy rises.
 SCF Done:  E(RB3LYP) =  -343.367407362     A.U. after   13 cycles
            NFock= 13  Conv=0.37D-08     -V/T= 2.0091
 DoSCS=F DFT=T ScalE2(SS,OS)=  1.000000  1.000000
 Range of M.O.s used for correlation:     1   126
 NBasis=   126 NAE=    24 NBE=    24 NFC=     0 NFV=     0
 NROrb=    126 NOA=    24 NOB=    24 NVA=   102 NVB=   102

 **** Warning!!: The largest alpha MO coefficient is  0.32726637D+02

 Symmetrizing basis deriv contribution to polar:
 IMax=3 JMax=2 DiffMx= 0.00D+00
 G2DrvN: will do    13 centers at a time, making    1 passes.
 Calling FoFCou, ICntrl=  3107 FMM=F I1Cent=   0 AccDes= 0.00D+00.
 End of G2Drv F.D. properties file   721 does not exist.
 End of G2Drv F.D. properties file   722 does not exist.
 End of G2Drv F.D. properties file   788 does not exist.
          IDoAtm=111111111111
          Differentiating once with respect to nuclear coordinates.
 Keep R1 ints in memory in canonical form, NReq=47193258.
          There are    39 degrees of freedom in the 1st order CPHF.  IDoFFX=6 NUNeed=     0.
     33 vectors produced by pass  0 Test12= 6.28D-15 2.56D-09 XBig12= 2.37D-01 1.62D-01.
 AX will form    33 AO Fock derivatives at one time.
     33 vectors produced by pass  1 Test12= 6.28D-15 2.56D-09 XBig12= 2.20D-02 3.84D-02.
     33 vectors produced by pass  2 Test12= 6.28D-15 2.56D-09 XBig12= 3.86D-04 4.68D-03.
     33 vectors produced by pass  3 Test12= 6.28D-15 2.56D-09 XBig12= 2.85D-06 2.50D-04.
     33 vectors produced by pass  4 Test12= 6.28D-15 2.56D-09 XBig12= 4.94D-09 9.66D-06.
     29 vectors produced by pass  5 Test12= 6.28D-15 2.56D-09 XBig12= 5.51D-12 3.09D-07.
      6 vectors produced by pass  6 Test12= 6.28D-15 2.56D-09 XBig12= 5.13D-15 8.87D-09.
 InvSVY:  IOpt=1 It=  1 EMax= 1.89D-15
 Solved reduced A of dimension   200 with    33 vectors.
 End of Minotr F.D. properties file   721 does not exist.
 End of Minotr F.D. properties file   722 does not exist.
 End of Minotr F.D. properties file   788 does not exist.
 Calling FoFJK, ICntrl=    100127 FMM=F ISym2X=0 I1Cent= 0 IOpClX= 0 NMat=1 NMatS=1 NMatT=0.
 -------------------------------------------------------------------
 Center     Atomic                   Forces (Hartrees/Bohr)
 Number     Number              X              Y              Z
 -------------------------------------------------------------------
      1        6          -0.000766355    0.001410241    0.001148833
      2        6          -0.002034968   -0.001216980   -0.001836207
      3        6          -0.001164668   -0.006141604    0.015848228
      4        8           0.000644555   -0.000326582   -0.000245008
      5        8           0.000374089    0.000729918   -0.000759725
      6        8           0.001987146    0.000628902   -0.005106539
      7        1          -0.000624158   -0.000176447    0.000095823
      8        1           0.000241198   -0.000095477    0.000032887
      9        1          -0.000081900    0.000084927    0.000019654
     10        1          -0.001097203    0.002504998   -0.009821025
     11        1           0.003501132    0.004159088    0.001946929
     12        1          -0.000978868   -0.001560984   -0.001323850
 -------------------------------------------------------------------
 Cartesian Forces:  Max     0.015848228 RMS     0.003645098
 IRC-IRC-IRC-IRC-IRC-IRC-IRC-IRC-IRC-IRC-IRC-IRC-IRC-IRC-IRC-IRC-IRC-IRC
 Pt  2 Step number   1 out of a maximum of 100
 Modified Bulirsch-Stoer Extrapolation Cycles:
    EPS =    0.000010000000000
      PEZero:  N= 2 I= 1 D=  8.55D-04 Err=  3.85D-05
      PEZero:  N= 3 I= 2 D=  8.55D-04 Err=  2.57D-05
      PEZero:  N= 3 I= 1 D=  1.71D-03 Err=  7.29D-08
 Maximum DWI energy   std dev =  0.000007050 at pt    28
 Maximum DWI gradient std dev =  0.012075271 at pt    12
 CORRECTOR INTEGRATION CONVERGENCE:
   Recorrection delta-x convergence threshold:    0.010000
   Delta-x Convergence Met
 Point Number:   2          Path Number:   1
   CHANGE IN THE REACTION COORDINATE =    0.16404
   NET REACTION COORDINATE UP TO THIS POINT =    0.32813
  # OF POINTS ALONG THE PATH =   2
  # OF STEPS =   1

 Calculating another point on the path.
 IRC-IRC-IRC-IRC-IRC-IRC-IRC-IRC-IRC-IRC-IRC-IRC-IRC-IRC-IRC-IRC-IRC-IRC
                          Input orientation:                          
 ---------------------------------------------------------------------
 Center     Atomic      Atomic             Coordinates (Angstroms)
 Number     Number       Type             X           Y           Z
 ---------------------------------------------------------------------
      1          6           0       -0.882909    1.034850    0.339326
      2          6           0        0.478587    0.934164   -0.249465
      3          6           0        1.394951   -0.027286    0.231608
      4          8           0       -1.820738    0.092701   -0.285087
      5          8           0       -1.359693   -1.231754    0.100878
      6          8           0        2.531867   -0.410731   -0.127444
      7          1           0       -1.398407   -1.691265   -0.760027
      8          1           0       -0.910888    0.847047    1.418856
      9          1           0       -1.360130    1.995964    0.132392
     10          1           0        0.393188   -0.800367    0.190761
     11          1           0        1.069597   -0.364694    1.295270
     12          1           0        0.704585    1.489697   -1.158774
 ---------------------------------------------------------------------
                    Distance matrix (angstroms):
                    1          2          3          4          5
     1  C    0.000000
     2  C    1.486769   0.000000
     3  C    2.515627   1.412636   0.000000
     4  O    1.468693   2.448719   3.259146   0.000000
     5  O    2.328449   2.862380   3.009302   1.454549   0.000000
     6  O    3.737415   2.457558   1.252408   4.384458   3.983773
     7  H    2.984295   3.267516   3.399267   1.893797   0.976630
     8  H    1.096101   2.172907   2.736953   2.073713   2.501981
     9  H    1.092841   2.157340   3.419628   2.002213   3.227872
    10  H    2.240204   1.791561   1.266039   2.434229   1.807420
    11  H    2.585505   2.102982   1.162358   3.325775   2.842502
    12  H    2.229647   1.089282   2.170485   3.015325   3.640641
                    6          7          8          9         10
     6  O    0.000000
     7  H    4.181744   0.000000
     8  H    3.978142   3.380567   0.000000
     9  H    4.583376   3.793881   1.782363   0.000000
    10  H    2.197048   2.215290   2.433681   3.301060   0.000000
    11  H    2.040703   3.474922   2.325062   3.581699   1.366485
    12  H    2.830941   3.834070   3.109168   2.487260   2.676305
                   11         12
    11  H    0.000000
    12  H    3.097472   0.000000
 Symmetry turned off by external request.
 Stoichiometry    C3H6O3
 Framework group  C1[X(C3H6O3)]
 Deg. of freedom    30
 Full point group                 C1      NOp   1
 Rotational constants (GHZ):           7.0905987           2.1299874           1.7539618
 Standard basis: 6-31+G(d) (6D, 7F)
   126 basis functions,   216 primitive gaussians,   126 cartesian basis functions
    24 alpha electrons       24 beta electrons
       nuclear repulsion energy       239.8915651278 Hartrees.
 NAtoms=   12 NActive=   12 NUniq=   12 SFac= 1.00D+00 NAtFMM=   60 NAOKFM=F Big=F
 Integral buffers will be    131072 words long.
 Raffenetti 2 integral format.
 Two-electron integral symmetry is turned off.
 One-electron integrals computed using PRISM.
 NBasis=   126 RedAO= T EigKep=  1.06D-04  NBF=   126
 NBsUse=   126 1.00D-06 EigRej= -1.00D+00 NBFU=   126
 Initial guess from the checkpoint file:  "/scratch/bell/zhao922/YARP/paper-example/KHP-network/pp_0/IRC-folder/Gau-71909.chk"
 B after Tr=     0.000078    0.000612   -0.001216
         Rot=    1.000000    0.000089   -0.000124   -0.000053 Ang=   0.02 deg.
 ExpMin= 4.38D-02 ExpMax= 5.48D+03 ExpMxC= 8.25D+02 IAcc=3 IRadAn=         5 AccDes= 0.00D+00
 Harris functional with IExCor=  402 and IRadAn=       5 diagonalized for initial guess.
 HarFok:  IExCor=  402 AccDes= 0.00D+00 IRadAn=         5 IDoV= 1 UseB2=F ITyADJ=14
 ICtDFT=  3500011 ScaDFX=  1.000000  1.000000  1.000000  1.000000
 FoFCou: FMM=F IPFlag=           0 FMFlag=      100000 FMFlg1=           0
         NFxFlg=           0 DoJE=T BraDBF=F KetDBF=T FulRan=T
         wScrn=  0.000000 ICntrl=       500 IOpCl=  0 I1Cent=   200000004 NGrid=           0
         NMat0=    1 NMatS0=      1 NMatT0=    0 NMatD0=    1 NMtDS0=    0 NMtDT0=    0
 Symmetry not used in FoFCou.
 Keep R1 ints in memory in canonical form, NReq=47237243.
 Requested convergence on RMS density matrix=1.00D-08 within 128 cycles.
 Requested convergence on MAX density matrix=1.00D-06.
 Requested convergence on             energy=1.00D-06.
 No special actions if energy rises.
 SCF Done:  E(RB3LYP) =  -343.369901715     A.U. after   12 cycles
            NFock= 12  Conv=0.98D-08     -V/T= 2.0091
 DoSCS=F DFT=T ScalE2(SS,OS)=  1.000000  1.000000
 Range of M.O.s used for correlation:     1   126
 NBasis=   126 NAE=    24 NBE=    24 NFC=     0 NFV=     0
 NROrb=    126 NOA=    24 NOB=    24 NVA=   102 NVB=   102

 **** Warning!!: The largest alpha MO coefficient is  0.33185768D+02

 Symmetrizing basis deriv contribution to polar:
 IMax=3 JMax=2 DiffMx= 0.00D+00
 G2DrvN: will do    13 centers at a time, making    1 passes.
 Calling FoFCou, ICntrl=  3107 FMM=F I1Cent=   0 AccDes= 0.00D+00.
 End of G2Drv F.D. properties file   721 does not exist.
 End of G2Drv F.D. properties file   722 does not exist.
 End of G2Drv F.D. properties file   788 does not exist.
          IDoAtm=111111111111
          Differentiating once with respect to nuclear coordinates.
 Keep R1 ints in memory in canonical form, NReq=47193258.
          There are    39 degrees of freedom in the 1st order CPHF.  IDoFFX=6 NUNeed=     0.
     33 vectors produced by pass  0 Test12= 6.28D-15 2.56D-09 XBig12= 2.40D-01 1.45D-01.
 AX will form    33 AO Fock derivatives at one time.
     33 vectors produced by pass  1 Test12= 6.28D-15 2.56D-09 XBig12= 2.25D-02 3.63D-02.
     33 vectors produced by pass  2 Test12= 6.28D-15 2.56D-09 XBig12= 3.83D-04 4.64D-03.
     33 vectors produced by pass  3 Test12= 6.28D-15 2.56D-09 XBig12= 2.95D-06 2.63D-04.
     33 vectors produced by pass  4 Test12= 6.28D-15 2.56D-09 XBig12= 5.29D-09 9.24D-06.
     30 vectors produced by pass  5 Test12= 6.28D-15 2.56D-09 XBig12= 5.95D-12 2.64D-07.
      6 vectors produced by pass  6 Test12= 6.28D-15 2.56D-09 XBig12= 5.35D-15 1.06D-08.
 InvSVY:  IOpt=1 It=  1 EMax= 2.44D-15
 Solved reduced A of dimension   201 with    33 vectors.
 End of Minotr F.D. properties file   721 does not exist.
 End of Minotr F.D. properties file   722 does not exist.
 End of Minotr F.D. properties file   788 does not exist.
 Calling FoFJK, ICntrl=    100127 FMM=F ISym2X=0 I1Cent= 0 IOpClX= 0 NMat=1 NMatS=1 NMatT=0.
 -------------------------------------------------------------------
 Center     Atomic                   Forces (Hartrees/Bohr)
 Number     Number              X              Y              Z
 -------------------------------------------------------------------
      1        6          -0.001176349    0.001759263    0.001539053
      2        6          -0.002921105   -0.003009932   -0.002390492
      3        6           0.000848009   -0.006547984    0.021763229
      4        8           0.000636469   -0.000181183   -0.000218771
      5        8           0.000584383    0.001015062   -0.001240557
      6        8           0.001727965    0.000884759   -0.007024089
      7        1          -0.000982152   -0.000262566    0.000142136
      8        1           0.000332021   -0.000115035    0.000055930
      9        1          -0.000074350    0.000126563    0.000020133
     10        1          -0.001645723    0.004100818   -0.013054813
     11        1           0.004031927    0.004738620    0.002318426
     12        1          -0.001361095   -0.002508385   -0.001910186
 -------------------------------------------------------------------
 Cartesian Forces:  Max     0.021763229 RMS     0.004861772
 IRC-IRC-IRC-IRC-IRC-IRC-IRC-IRC-IRC-IRC-IRC-IRC-IRC-IRC-IRC-IRC-IRC-IRC
 Pt  3 Step number   1 out of a maximum of 100
 Modified Bulirsch-Stoer Extrapolation Cycles:
    EPS =    0.000010000000000
      PEZero:  N= 2 I= 1 D=  8.55D-04 Err=  5.64D-05
      PEZero:  N= 3 I= 2 D=  8.55D-04 Err=  3.76D-05
      PEZero:  N= 3 I= 1 D=  1.71D-03 Err=  7.72D-08
 Maximum DWI energy   std dev =  0.000005943 at pt    28
 Maximum DWI gradient std dev =  0.008235112 at pt    12
 CORRECTOR INTEGRATION CONVERGENCE:
   Recorrection delta-x convergence threshold:    0.010000
   Delta-x Convergence Met
 Point Number:   3          Path Number:   1
   CHANGE IN THE REACTION COORDINATE =    0.16401
   NET REACTION COORDINATE UP TO THIS POINT =    0.49214
  # OF POINTS ALONG THE PATH =   3
  # OF STEPS =   1

 Calculating another point on the path.
 IRC-IRC-IRC-IRC-IRC-IRC-IRC-IRC-IRC-IRC-IRC-IRC-IRC-IRC-IRC-IRC-IRC-IRC
                          Input orientation:                          
 ---------------------------------------------------------------------
 Center     Atomic      Atomic             Coordinates (Angstroms)
 Number     Number       Type             X           Y           Z
 ---------------------------------------------------------------------
      1          6           0       -0.883444    1.035555    0.339978
      2          6           0        0.477321    0.932541   -0.250444
      3          6           0        1.395830   -0.029628    0.240952
      4          8           0       -1.820585    0.092695   -0.285135
      5          8           0       -1.359490   -1.231421    0.100457
      6          8           0        2.532282   -0.410449   -0.129698
      7          1           0       -1.403687   -1.692674   -0.759344
      8          1           0       -0.909213    0.846522    1.419142
      9          1           0       -1.360383    1.996628    0.132476
     10          1           0        0.383995   -0.777878    0.125069
     11          1           0        1.088335   -0.343143    1.305973
     12          1           0        0.697638    1.476077   -1.168979
 ---------------------------------------------------------------------
                    Distance matrix (angstroms):
                    1          2          3          4          5
     1  C    0.000000
     2  C    1.486906   0.000000
     3  C    2.517839   1.418062   0.000000
     4  O    1.469008   2.446818   3.261450   0.000000
     5  O    2.328770   2.860024   3.009291   1.454157   0.000000
     6  O    3.738811   2.457858   1.254563   4.384605   3.984075
     7  H    2.987038   3.269392   3.406407   1.893732   0.976711
     8  H    1.095898   2.171955   2.732946   2.074468   2.501905
     9  H    1.092790   2.157791   3.422600   2.002784   3.228208
    10  H    2.222864   1.753640   1.263771   2.405481   1.801678
    11  H    2.592656   2.103127   1.152005   3.344158   2.869521
    12  H    2.229537   1.089807   2.177734   3.006057   3.629572
                    6          7          8          9         10
     6  O    0.000000
     7  H    4.187171   0.000000
     8  H    3.977784   3.381985   0.000000
     9  H    4.584277   3.795809   1.783762   0.000000
    10  H    2.194322   2.194275   2.446566   3.277315   0.000000
    11  H    2.037318   3.506699   2.327726   3.584389   1.442090
    12  H    2.829311   3.824180   3.110736   2.490023   2.617871
                   11         12
    11  H    0.000000
    12  H    3.096384   0.000000
 Symmetry turned off by external request.
 Stoichiometry    C3H6O3
 Framework group  C1[X(C3H6O3)]
 Deg. of freedom    30
 Full point group                 C1      NOp   1
 Rotational constants (GHZ):           7.0921523           2.1283683           1.7542060
 Standard basis: 6-31+G(d) (6D, 7F)
   126 basis functions,   216 primitive gaussians,   126 cartesian basis functions
    24 alpha electrons       24 beta electrons
       nuclear repulsion energy       239.8737806195 Hartrees.
 NAtoms=   12 NActive=   12 NUniq=   12 SFac= 1.00D+00 NAtFMM=   60 NAOKFM=F Big=F
 Integral buffers will be    131072 words long.
 Raffenetti 2 integral format.
 Two-electron integral symmetry is turned off.
 One-electron integrals computed using PRISM.
 NBasis=   126 RedAO= T EigKep=  1.09D-04  NBF=   126
 NBsUse=   126 1.00D-06 EigRej= -1.00D+00 NBFU=   126
 Initial guess from the checkpoint file:  "/scratch/bell/zhao922/YARP/paper-example/KHP-network/pp_0/IRC-folder/Gau-71909.chk"
 B after Tr=    -0.000028    0.000568   -0.001255
         Rot=    1.000000    0.000081   -0.000121   -0.000040 Ang=   0.02 deg.
 ExpMin= 4.38D-02 ExpMax= 5.48D+03 ExpMxC= 8.25D+02 IAcc=3 IRadAn=         5 AccDes= 0.00D+00
 Harris functional with IExCor=  402 and IRadAn=       5 diagonalized for initial guess.
 HarFok:  IExCor=  402 AccDes= 0.00D+00 IRadAn=         5 IDoV= 1 UseB2=F ITyADJ=14
 ICtDFT=  3500011 ScaDFX=  1.000000  1.000000  1.000000  1.000000
 FoFCou: FMM=F IPFlag=           0 FMFlag=      100000 FMFlg1=           0
         NFxFlg=           0 DoJE=T BraDBF=F KetDBF=T FulRan=T
         wScrn=  0.000000 ICntrl=       500 IOpCl=  0 I1Cent=   200000004 NGrid=           0
         NMat0=    1 NMatS0=      1 NMatT0=    0 NMatD0=    1 NMtDS0=    0 NMtDT0=    0
 Symmetry not used in FoFCou.
 Keep R1 ints in memory in canonical form, NReq=47237243.
 Requested convergence on RMS density matrix=1.00D-08 within 128 cycles.
 Requested convergence on MAX density matrix=1.00D-06.
 Requested convergence on             energy=1.00D-06.
 No special actions if energy rises.
 SCF Done:  E(RB3LYP) =  -343.372990966     A.U. after   12 cycles
            NFock= 12  Conv=0.92D-08     -V/T= 2.0090
 DoSCS=F DFT=T ScalE2(SS,OS)=  1.000000  1.000000
 Range of M.O.s used for correlation:     1   126
 NBasis=   126 NAE=    24 NBE=    24 NFC=     0 NFV=     0
 NROrb=    126 NOA=    24 NOB=    24 NVA=   102 NVB=   102

 **** Warning!!: The largest alpha MO coefficient is  0.33532865D+02

 Symmetrizing basis deriv contribution to polar:
 IMax=3 JMax=2 DiffMx= 0.00D+00
 G2DrvN: will do    13 centers at a time, making    1 passes.
 Calling FoFCou, ICntrl=  3107 FMM=F I1Cent=   0 AccDes= 0.00D+00.
 End of G2Drv F.D. properties file   721 does not exist.
 End of G2Drv F.D. properties file   722 does not exist.
 End of G2Drv F.D. properties file   788 does not exist.
          IDoAtm=111111111111
          Differentiating once with respect to nuclear coordinates.
 Keep R1 ints in memory in canonical form, NReq=47193258.
          There are    39 degrees of freedom in the 1st order CPHF.  IDoFFX=6 NUNeed=     0.
     33 vectors produced by pass  0 Test12= 6.28D-15 2.56D-09 XBig12= 2.39D-01 1.36D-01.
 AX will form    33 AO Fock derivatives at one time.
     33 vectors produced by pass  1 Test12= 6.28D-15 2.56D-09 XBig12= 2.26D-02 3.30D-02.
     33 vectors produced by pass  2 Test12= 6.28D-15 2.56D-09 XBig12= 3.75D-04 4.61D-03.
     33 vectors produced by pass  3 Test12= 6.28D-15 2.56D-09 XBig12= 2.99D-06 2.72D-04.
     33 vectors produced by pass  4 Test12= 6.28D-15 2.56D-09 XBig12= 5.59D-09 9.15D-06.
     30 vectors produced by pass  5 Test12= 6.28D-15 2.56D-09 XBig12= 6.31D-12 2.74D-07.
      6 vectors produced by pass  6 Test12= 6.28D-15 2.56D-09 XBig12= 5.67D-15 9.00D-09.
 InvSVY:  IOpt=1 It=  1 EMax= 2.66D-15
 Solved reduced A of dimension   201 with    33 vectors.
 End of Minotr F.D. properties file   721 does not exist.
 End of Minotr F.D. properties file   722 does not exist.
 End of Minotr F.D. properties file   788 does not exist.
 Calling FoFJK, ICntrl=    100127 FMM=F ISym2X=0 I1Cent= 0 IOpClX= 0 NMat=1 NMatS=1 NMatT=0.
 -------------------------------------------------------------------
 Center     Atomic                   Forces (Hartrees/Bohr)
 Number     Number              X              Y              Z
 -------------------------------------------------------------------
      1        6          -0.001615034    0.001866240    0.001805821
      2        6          -0.003734865   -0.005683324   -0.002806216
      3        6           0.004335599   -0.005498393    0.026418178
      4        8           0.000369390    0.000187401   -0.000075634
      5        8           0.000840314    0.001255109   -0.001719466
      6        8           0.000736567    0.001152709   -0.008431224
      7        1          -0.001320534   -0.000332316    0.000191153
      8        1           0.000392562   -0.000111401    0.000082192
      9        1          -0.000035400    0.000167019    0.000017691
     10        1          -0.002252998    0.006097397   -0.015447086
     11        1           0.003938232    0.004435264    0.002368830
     12        1          -0.001653832   -0.003535704   -0.002404237
 -------------------------------------------------------------------
 Cartesian Forces:  Max     0.026418178 RMS     0.005853698
 IRC-IRC-IRC-IRC-IRC-IRC-IRC-IRC-IRC-IRC-IRC-IRC-IRC-IRC-IRC-IRC-IRC-IRC
 Pt  4 Step number   1 out of a maximum of 100
 Modified Bulirsch-Stoer Extrapolation Cycles:
    EPS =    0.000010000000000
      PEZero:  N= 2 I= 1 D=  8.54D-04 Err=  7.30D-05
      PEZero:  N= 3 I= 2 D=  8.54D-04 Err=  4.87D-05
      PEZero:  N= 3 I= 1 D=  1.71D-03 Err=  7.97D-08
 Maximum DWI energy   std dev =  0.000004407 at pt    28
 Maximum DWI gradient std dev =  0.006814983 at pt    12
 CORRECTOR INTEGRATION CONVERGENCE:
   Recorrection delta-x convergence threshold:    0.010000
   Delta-x Convergence Met
 Point Number:   4          Path Number:   1
   CHANGE IN THE REACTION COORDINATE =    0.16395
   NET REACTION COORDINATE UP TO THIS POINT =    0.65609
  # OF POINTS ALONG THE PATH =   4
  # OF STEPS =   1

 Calculating another point on the path.
 IRC-IRC-IRC-IRC-IRC-IRC-IRC-IRC-IRC-IRC-IRC-IRC-IRC-IRC-IRC-IRC-IRC-IRC
                          Input orientation:                          
 ---------------------------------------------------------------------
 Center     Atomic      Atomic             Coordinates (Angstroms)
 Number     Number       Type             X           Y           Z
 ---------------------------------------------------------------------
      1          6           0       -0.884059    1.036162    0.340613
      2          6           0        0.475964    0.930109   -0.251410
      3          6           0        1.397947   -0.031117    0.250383
      4          8           0       -1.820552    0.092808   -0.285126
      5          8           0       -1.359246   -1.231079    0.099979
      6          8           0        2.532323   -0.410133   -0.131931
      7          1           0       -1.409488   -1.694125   -0.758567
      8          1           0       -0.907590    0.846127    1.419501
      9          1           0       -1.360391    1.997361    0.132531
     10          1           0        0.373466   -0.749698    0.060076
     11          1           0        1.103223   -0.327125    1.314910
     12          1           0        0.690676    1.460190   -1.179580
 ---------------------------------------------------------------------
                    Distance matrix (angstroms):
                    1          2          3          4          5
     1  C    0.000000
     2  C    1.487078   0.000000
     3  C    2.520868   1.423307   0.000000
     4  O    1.469178   2.444625   3.265097   0.000000
     5  O    2.328967   2.856957   3.010755   1.453886   0.000000
     6  O    3.739884   2.457465   1.255638   4.384511   3.983974
     7  H    2.989773   3.270893   3.415446   1.893740   0.976749
     8  H    1.095749   2.170995   2.729816   2.075269   2.501982
     9  H    1.092746   2.158388   3.425936   2.003374   3.228604
    10  H    2.202128   1.711514   1.265756   2.375435   1.798780
    11  H    2.599441   2.104150   1.143547   3.359303   2.890837
    12  H    2.229479   1.090223   2.183808   2.996005   3.616957
                    6          7          8          9         10
     6  O    0.000000
     7  H    4.192754   0.000000
     8  H    3.977202   3.383602   0.000000
     9  H    4.584669   3.797833   1.785122   0.000000
    10  H    2.193818   2.177393   2.456786   3.249284   0.000000
    11  H    2.035330   3.532946   2.330414   3.587568   1.511860
    12  H    2.826187   3.812826   3.112354   2.493404   2.553620
                   11         12
    11  H    0.000000
    12  H    3.096315   0.000000
 Symmetry turned off by external request.
 Stoichiometry    C3H6O3
 Framework group  C1[X(C3H6O3)]
 Deg. of freedom    30
 Full point group                 C1      NOp   1
 Rotational constants (GHZ):           7.0959884           2.1266028           1.7545728
 Standard basis: 6-31+G(d) (6D, 7F)
   126 basis functions,   216 primitive gaussians,   126 cartesian basis functions
    24 alpha electrons       24 beta electrons
       nuclear repulsion energy       239.8745827449 Hartrees.
 NAtoms=   12 NActive=   12 NUniq=   12 SFac= 1.00D+00 NAtFMM=   60 NAOKFM=F Big=F
 Integral buffers will be    131072 words long.
 Raffenetti 2 integral format.
 Two-electron integral symmetry is turned off.
 One-electron integrals computed using PRISM.
 NBasis=   126 RedAO= T EigKep=  1.11D-04  NBF=   126
 NBsUse=   126 1.00D-06 EigRej= -1.00D+00 NBFU=   126
 Initial guess from the checkpoint file:  "/scratch/bell/zhao922/YARP/paper-example/KHP-network/pp_0/IRC-folder/Gau-71909.chk"
 B after Tr=    -0.000136    0.000530   -0.001282
         Rot=    1.000000    0.000064   -0.000116   -0.000025 Ang=   0.02 deg.
 ExpMin= 4.38D-02 ExpMax= 5.48D+03 ExpMxC= 8.25D+02 IAcc=3 IRadAn=         5 AccDes= 0.00D+00
 Harris functional with IExCor=  402 and IRadAn=       5 diagonalized for initial guess.
 HarFok:  IExCor=  402 AccDes= 0.00D+00 IRadAn=         5 IDoV= 1 UseB2=F ITyADJ=14
 ICtDFT=  3500011 ScaDFX=  1.000000  1.000000  1.000000  1.000000
 FoFCou: FMM=F IPFlag=           0 FMFlag=      100000 FMFlg1=           0
         NFxFlg=           0 DoJE=T BraDBF=F KetDBF=T FulRan=T
         wScrn=  0.000000 ICntrl=       500 IOpCl=  0 I1Cent=   200000004 NGrid=           0
         NMat0=    1 NMatS0=      1 NMatT0=    0 NMatD0=    1 NMtDS0=    0 NMtDT0=    0
 Symmetry not used in FoFCou.
 Keep R1 ints in memory in canonical form, NReq=47237243.
 Requested convergence on RMS density matrix=1.00D-08 within 128 cycles.
 Requested convergence on MAX density matrix=1.00D-06.
 Requested convergence on             energy=1.00D-06.
 No special actions if energy rises.
 SCF Done:  E(RB3LYP) =  -343.376574832     A.U. after   12 cycles
            NFock= 12  Conv=0.74D-08     -V/T= 2.0091
 DoSCS=F DFT=T ScalE2(SS,OS)=  1.000000  1.000000
 Range of M.O.s used for correlation:     1   126
 NBasis=   126 NAE=    24 NBE=    24 NFC=     0 NFV=     0
 NROrb=    126 NOA=    24 NOB=    24 NVA=   102 NVB=   102

 **** Warning!!: The largest alpha MO coefficient is  0.33865060D+02

 Symmetrizing basis deriv contribution to polar:
 IMax=3 JMax=2 DiffMx= 0.00D+00
 G2DrvN: will do    13 centers at a time, making    1 passes.
 Calling FoFCou, ICntrl=  3107 FMM=F I1Cent=   0 AccDes= 0.00D+00.
 End of G2Drv F.D. properties file   721 does not exist.
 End of G2Drv F.D. properties file   722 does not exist.
 End of G2Drv F.D. properties file   788 does not exist.
          IDoAtm=111111111111
          Differentiating once with respect to nuclear coordinates.
 Keep R1 ints in memory in canonical form, NReq=47193258.
          There are    39 degrees of freedom in the 1st order CPHF.  IDoFFX=6 NUNeed=     0.
     33 vectors produced by pass  0 Test12= 6.28D-15 2.56D-09 XBig12= 2.36D-01 1.39D-01.
 AX will form    33 AO Fock derivatives at one time.
     33 vectors produced by pass  1 Test12= 6.28D-15 2.56D-09 XBig12= 2.21D-02 4.00D-02.
     33 vectors produced by pass  2 Test12= 6.28D-15 2.56D-09 XBig12= 3.64D-04 4.61D-03.
     33 vectors produced by pass  3 Test12= 6.28D-15 2.56D-09 XBig12= 2.98D-06 2.80D-04.
     33 vectors produced by pass  4 Test12= 6.28D-15 2.56D-09 XBig12= 5.87D-09 1.01D-05.
     30 vectors produced by pass  5 Test12= 6.28D-15 2.56D-09 XBig12= 6.74D-12 3.19D-07.
      7 vectors produced by pass  6 Test12= 6.28D-15 2.56D-09 XBig12= 6.34D-15 1.18D-08.
 InvSVY:  IOpt=1 It=  1 EMax= 1.67D-15
 Solved reduced A of dimension   202 with    33 vectors.
 End of Minotr F.D. properties file   721 does not exist.
 End of Minotr F.D. properties file   722 does not exist.
 End of Minotr F.D. properties file   788 does not exist.
 Calling FoFJK, ICntrl=    100127 FMM=F ISym2X=0 I1Cent= 0 IOpClX= 0 NMat=1 NMatS=1 NMatT=0.
 -------------------------------------------------------------------
 Center     Atomic                   Forces (Hartrees/Bohr)
 Number     Number              X              Y              Z
 -------------------------------------------------------------------
      1        6          -0.002106312    0.001772562    0.001981272
      2        6          -0.004513663   -0.009281635   -0.003186281
      3        6           0.008906184   -0.003465458    0.030041108
      4        8          -0.000152611    0.000777336    0.000184970
      5        8           0.001114668    0.001455653   -0.002153661
      6        8          -0.000760448    0.001485022   -0.009311565
      7        1          -0.001613359   -0.000379429    0.000238771
      8        1           0.000416349   -0.000081608    0.000111963
      9        1           0.000027568    0.000204853    0.000014548
     10        1          -0.002943109    0.008567924   -0.017309889
     11        1           0.003471347    0.003524485    0.002172043
     12        1          -0.001846614   -0.004579705   -0.002783279
 -------------------------------------------------------------------
 Cartesian Forces:  Max     0.030041108 RMS     0.006803164
 IRC-IRC-IRC-IRC-IRC-IRC-IRC-IRC-IRC-IRC-IRC-IRC-IRC-IRC-IRC-IRC-IRC-IRC
 Pt  5 Step number   1 out of a maximum of 100
 Modified Bulirsch-Stoer Extrapolation Cycles:
    EPS =    0.000010000000000
      PEZero:  N= 2 I= 1 D=  8.54D-04 Err=  8.15D-05
      PEZero:  N= 3 I= 2 D=  8.54D-04 Err=  5.43D-05
      PEZero:  N= 3 I= 1 D=  1.71D-03 Err=  9.99D-08
 Maximum DWI energy   std dev =  0.000003077 at pt    27
 Maximum DWI gradient std dev =  0.005915432 at pt    71
 CORRECTOR INTEGRATION CONVERGENCE:
   Recorrection delta-x convergence threshold:    0.010000
   Delta-x Convergence Met
 Point Number:   5          Path Number:   1
   CHANGE IN THE REACTION COORDINATE =    0.16391
   NET REACTION COORDINATE UP TO THIS POINT =    0.82000
  # OF POINTS ALONG THE PATH =   5
  # OF STEPS =   1

 Calculating another point on the path.
 IRC-IRC-IRC-IRC-IRC-IRC-IRC-IRC-IRC-IRC-IRC-IRC-IRC-IRC-IRC-IRC-IRC-IRC
                          Input orientation:                          
 ---------------------------------------------------------------------
 Center     Atomic      Atomic             Coordinates (Angstroms)
 Number     Number       Type             X           Y           Z
 ---------------------------------------------------------------------
      1          6           0       -0.884754    1.036646    0.341212
      2          6           0        0.474542    0.926792   -0.252373
      3          6           0        1.401262   -0.031745    0.259609
      4          8           0       -1.820661    0.093060   -0.285049
      5          8           0       -1.358975   -1.230738    0.099472
      6          8           0        2.531995   -0.409771   -0.134032
      7          1           0       -1.415504   -1.695522   -0.757729
      8          1           0       -0.906142    0.845925    1.419928
      9          1           0       -1.360149    1.998138    0.132567
     10          1           0        0.361678   -0.715493   -0.003034
     11          1           0        1.114311   -0.316886    1.321790
     12          1           0        0.684072    1.442654   -1.190008
 ---------------------------------------------------------------------
                    Distance matrix (angstroms):
                    1          2          3          4          5
     1  C    0.000000
     2  C    1.487312   0.000000
     3  C    2.524676   1.428191   0.000000
     4  O    1.469176   2.442157   3.270018   0.000000
     5  O    2.329024   2.853159   3.013659   1.453772   0.000000
     6  O    3.740609   2.456322   1.255553   4.384205   3.983486
     7  H    2.992342   3.271726   3.425975   1.893833   0.976736
     8  H    1.095655   2.170119   2.727775   2.076078   2.502237
     9  H    1.092703   2.159178   3.429571   2.003946   3.229046
    10  H    2.177634   1.664935   1.271703   2.344332   1.799064
    11  H    2.605733   2.105714   1.136606   3.371060   2.906257
    12  H    2.229505   1.090493   2.188517   2.985639   3.603307
                    6          7          8          9         10
     6  O    0.000000
     7  H    4.198202   0.000000
     8  H    3.976474   3.385350   0.000000
     9  H    4.584526   3.799844   1.786342   0.000000
    10  H    2.195655   2.165271   2.463780   3.216655   0.000000
    11  H    2.034176   3.553168   2.333236   3.591176   1.574961
    12  H    2.821592   3.800425   3.113942   2.497319   2.484037
                   11         12
    11  H    0.000000
    12  H    3.096808   0.000000
 Symmetry turned off by external request.
 Stoichiometry    C3H6O3
 Framework group  C1[X(C3H6O3)]
 Deg. of freedom    30
 Full point group                 C1      NOp   1
 Rotational constants (GHZ):           7.1026007           2.1247240           1.7550569
 Standard basis: 6-31+G(d) (6D, 7F)
   126 basis functions,   216 primitive gaussians,   126 cartesian basis functions
    24 alpha electrons       24 beta electrons
       nuclear repulsion energy       239.8997417254 Hartrees.
 NAtoms=   12 NActive=   12 NUniq=   12 SFac= 1.00D+00 NAtFMM=   60 NAOKFM=F Big=F
 Integral buffers will be    131072 words long.
 Raffenetti 2 integral format.
 Two-electron integral symmetry is turned off.
 One-electron integrals computed using PRISM.
 NBasis=   126 RedAO= T EigKep=  1.13D-04  NBF=   126
 NBsUse=   126 1.00D-06 EigRej= -1.00D+00 NBFU=   126
 Initial guess from the checkpoint file:  "/scratch/bell/zhao922/YARP/paper-example/KHP-network/pp_0/IRC-folder/Gau-71909.chk"
 B after Tr=    -0.000231    0.000509   -0.001281
         Rot=    1.000000    0.000039   -0.000108   -0.000010 Ang=   0.01 deg.
 ExpMin= 4.38D-02 ExpMax= 5.48D+03 ExpMxC= 8.25D+02 IAcc=3 IRadAn=         5 AccDes= 0.00D+00
 Harris functional with IExCor=  402 and IRadAn=       5 diagonalized for initial guess.
 HarFok:  IExCor=  402 AccDes= 0.00D+00 IRadAn=         5 IDoV= 1 UseB2=F ITyADJ=14
 ICtDFT=  3500011 ScaDFX=  1.000000  1.000000  1.000000  1.000000
 FoFCou: FMM=F IPFlag=           0 FMFlag=      100000 FMFlg1=           0
         NFxFlg=           0 DoJE=T BraDBF=F KetDBF=T FulRan=T
         wScrn=  0.000000 ICntrl=       500 IOpCl=  0 I1Cent=   200000004 NGrid=           0
         NMat0=    1 NMatS0=      1 NMatT0=    0 NMatD0=    1 NMtDS0=    0 NMtDT0=    0
 Symmetry not used in FoFCou.
 Keep R1 ints in memory in canonical form, NReq=47237243.
 Requested convergence on RMS density matrix=1.00D-08 within 128 cycles.
 Requested convergence on MAX density matrix=1.00D-06.
 Requested convergence on             energy=1.00D-06.
 No special actions if energy rises.
 SCF Done:  E(RB3LYP) =  -343.380649295     A.U. after   12 cycles
            NFock= 12  Conv=0.65D-08     -V/T= 2.0091
 DoSCS=F DFT=T ScalE2(SS,OS)=  1.000000  1.000000
 Range of M.O.s used for correlation:     1   126
 NBasis=   126 NAE=    24 NBE=    24 NFC=     0 NFV=     0
 NROrb=    126 NOA=    24 NOB=    24 NVA=   102 NVB=   102

 **** Warning!!: The largest alpha MO coefficient is  0.34207762D+02

 Symmetrizing basis deriv contribution to polar:
 IMax=3 JMax=2 DiffMx= 0.00D+00
 G2DrvN: will do    13 centers at a time, making    1 passes.
 Calling FoFCou, ICntrl=  3107 FMM=F I1Cent=   0 AccDes= 0.00D+00.
 End of G2Drv F.D. properties file   721 does not exist.
 End of G2Drv F.D. properties file   722 does not exist.
 End of G2Drv F.D. properties file   788 does not exist.
          IDoAtm=111111111111
          Differentiating once with respect to nuclear coordinates.
 Keep R1 ints in memory in canonical form, NReq=47193258.
          There are    39 degrees of freedom in the 1st order CPHF.  IDoFFX=6 NUNeed=     0.
     33 vectors produced by pass  0 Test12= 6.28D-15 2.56D-09 XBig12= 2.31D-01 1.35D-01.
 AX will form    33 AO Fock derivatives at one time.
     33 vectors produced by pass  1 Test12= 6.28D-15 2.56D-09 XBig12= 2.09D-02 4.16D-02.
     33 vectors produced by pass  2 Test12= 6.28D-15 2.56D-09 XBig12= 3.50D-04 4.61D-03.
     33 vectors produced by pass  3 Test12= 6.28D-15 2.56D-09 XBig12= 2.93D-06 2.83D-04.
     33 vectors produced by pass  4 Test12= 6.28D-15 2.56D-09 XBig12= 6.15D-09 9.71D-06.
     29 vectors produced by pass  5 Test12= 6.28D-15 2.56D-09 XBig12= 7.30D-12 3.57D-07.
      5 vectors produced by pass  6 Test12= 6.28D-15 2.56D-09 XBig12= 7.41D-15 1.26D-08.
 InvSVY:  IOpt=1 It=  1 EMax= 1.67D-15
 Solved reduced A of dimension   199 with    33 vectors.
 End of Minotr F.D. properties file   721 does not exist.
 End of Minotr F.D. properties file   722 does not exist.
 End of Minotr F.D. properties file   788 does not exist.
 Calling FoFJK, ICntrl=    100127 FMM=F ISym2X=0 I1Cent= 0 IOpClX= 0 NMat=1 NMatS=1 NMatT=0.
 -------------------------------------------------------------------
 Center     Atomic                   Forces (Hartrees/Bohr)
 Number     Number              X              Y              Z
 -------------------------------------------------------------------
      1        6          -0.002687379    0.001547441    0.002107020
      2        6          -0.005295987   -0.013796420   -0.003646248
      3        6           0.014166876   -0.000899029    0.032810285
      4        8          -0.000885928    0.001572239    0.000555949
      5        8           0.001344867    0.001605169   -0.002508104
      6        8          -0.002521034    0.001915270   -0.009675037
      7        1          -0.001848913   -0.000401276    0.000281896
      8        1           0.000405339   -0.000027215    0.000143327
      9        1           0.000102755    0.000239912    0.000014017
     10        1          -0.003695137    0.011503400   -0.018896140
     11        1           0.002840510    0.002283827    0.001832460
     12        1          -0.001925970   -0.005543317   -0.003019427
 -------------------------------------------------------------------
 Cartesian Forces:  Max     0.032810285 RMS     0.007832963
 IRC-IRC-IRC-IRC-IRC-IRC-IRC-IRC-IRC-IRC-IRC-IRC-IRC-IRC-IRC-IRC-IRC-IRC
 Pt  6 Step number   1 out of a maximum of 100
 Modified Bulirsch-Stoer Extrapolation Cycles:
    EPS =    0.000010000000000
      PEZero:  N= 2 I= 1 D=  8.54D-04 Err=  7.82D-05
      PEZero:  N= 3 I= 2 D=  8.54D-04 Err=  5.21D-05
      PEZero:  N= 3 I= 1 D=  1.71D-03 Err=  1.21D-07
 Maximum DWI energy   std dev =  0.000002290 at pt    27
 Maximum DWI gradient std dev =  0.005072889 at pt    71
 CORRECTOR INTEGRATION CONVERGENCE:
   Recorrection delta-x convergence threshold:    0.010000
   Delta-x Convergence Met
 Point Number:   6          Path Number:   1
   CHANGE IN THE REACTION COORDINATE =    0.16391
   NET REACTION COORDINATE UP TO THIS POINT =    0.98391
  # OF POINTS ALONG THE PATH =   6
  # OF STEPS =   1

 Calculating another point on the path.
 IRC-IRC-IRC-IRC-IRC-IRC-IRC-IRC-IRC-IRC-IRC-IRC-IRC-IRC-IRC-IRC-IRC-IRC
                          Input orientation:                          
 ---------------------------------------------------------------------
 Center     Atomic      Atomic             Coordinates (Angstroms)
 Number     Number       Type             X           Y           Z
 ---------------------------------------------------------------------
      1          6           0       -0.885531    1.037005    0.341770
      2          6           0        0.473079    0.922596   -0.253363
      3          6           0        1.405603   -0.031612    0.268373
      4          8           0       -1.820913    0.093452   -0.284900
      5          8           0       -1.358701   -1.230416    0.098966
      6          8           0        2.531352   -0.409358   -0.135910
      7          1           0       -1.421448   -1.696783   -0.756865
      8          1           0       -0.904942    0.845942    1.420410
      9          1           0       -1.359700    1.998932    0.132604
     10          1           0        0.348953   -0.675628   -0.063385
     11          1           0        1.122063   -0.311887    1.326683
     12          1           0        0.678183    1.424431   -1.199679
 ---------------------------------------------------------------------
                    Distance matrix (angstroms):
                    1          2          3          4          5
     1  C    0.000000
     2  C    1.487648   0.000000
     3  C    2.529155   1.432593   0.000000
     4  O    1.468995   2.439442   3.275997   0.000000
     5  O    2.328957   2.848686   3.017814   1.453830   0.000000
     6  O    3.741021   2.454462   1.254372   4.383746   3.982689
     7  H    2.994629   3.271681   3.437459   1.894008   0.976670
     8  H    1.095603   2.169409   2.726885   2.076855   2.502673
     9  H    1.092653   2.160220   3.433430   2.004465   3.229523
    10  H    2.149701   1.614255   1.281144   2.312763   1.802839
    11  H    2.611512   2.107528   1.130914   3.379735   2.916363
    12  H    2.229656   1.090605   2.191889   2.975534   3.589371
                    6          7          8          9         10
     6  O    0.000000
     7  H    4.203293   0.000000
     8  H    3.975679   3.387146   0.000000
     9  H    4.583912   3.801747   1.787354   0.000000
    10  H    2.199778   2.158238   2.467605   3.179808   0.000000
    11  H    2.033414   3.567710   2.336258   3.595116   1.631654
    12  H    2.815781   3.787679   3.115413   2.501598   2.410354
                   11         12
    11  H    0.000000
    12  H    3.097472   0.000000
 Symmetry turned off by external request.
 Stoichiometry    C3H6O3
 Framework group  C1[X(C3H6O3)]
 Deg. of freedom    30
 Full point group                 C1      NOp   1
 Rotational constants (GHZ):           7.1119689           2.1227565           1.7556231
 Standard basis: 6-31+G(d) (6D, 7F)
   126 basis functions,   216 primitive gaussians,   126 cartesian basis functions
    24 alpha electrons       24 beta electrons
       nuclear repulsion energy       239.9501034877 Hartrees.
 NAtoms=   12 NActive=   12 NUniq=   12 SFac= 1.00D+00 NAtFMM=   60 NAOKFM=F Big=F
 Integral buffers will be    131072 words long.
 Raffenetti 2 integral format.
 Two-electron integral symmetry is turned off.
 One-electron integrals computed using PRISM.
 NBasis=   126 RedAO= T EigKep=  1.15D-04  NBF=   126
 NBsUse=   126 1.00D-06 EigRej= -1.00D+00 NBFU=   126
 Initial guess from the checkpoint file:  "/scratch/bell/zhao922/YARP/paper-example/KHP-network/pp_0/IRC-folder/Gau-71909.chk"
 B after Tr=    -0.000300    0.000511   -0.001251
         Rot=    1.000000    0.000007   -0.000098    0.000002 Ang=   0.01 deg.
 ExpMin= 4.38D-02 ExpMax= 5.48D+03 ExpMxC= 8.25D+02 IAcc=3 IRadAn=         5 AccDes= 0.00D+00
 Harris functional with IExCor=  402 and IRadAn=       5 diagonalized for initial guess.
 HarFok:  IExCor=  402 AccDes= 0.00D+00 IRadAn=         5 IDoV= 1 UseB2=F ITyADJ=14
 ICtDFT=  3500011 ScaDFX=  1.000000  1.000000  1.000000  1.000000
 FoFCou: FMM=F IPFlag=           0 FMFlag=      100000 FMFlg1=           0
         NFxFlg=           0 DoJE=T BraDBF=F KetDBF=T FulRan=T
         wScrn=  0.000000 ICntrl=       500 IOpCl=  0 I1Cent=   200000004 NGrid=           0
         NMat0=    1 NMatS0=      1 NMatT0=    0 NMatD0=    1 NMtDS0=    0 NMtDT0=    0
 Symmetry not used in FoFCou.
 Keep R1 ints in memory in canonical form, NReq=47237243.
 Requested convergence on RMS density matrix=1.00D-08 within 128 cycles.
 Requested convergence on MAX density matrix=1.00D-06.
 Requested convergence on             energy=1.00D-06.
 No special actions if energy rises.
 SCF Done:  E(RB3LYP) =  -343.385263088     A.U. after   12 cycles
            NFock= 12  Conv=0.83D-08     -V/T= 2.0091
 DoSCS=F DFT=T ScalE2(SS,OS)=  1.000000  1.000000
 Range of M.O.s used for correlation:     1   126
 NBasis=   126 NAE=    24 NBE=    24 NFC=     0 NFV=     0
 NROrb=    126 NOA=    24 NOB=    24 NVA=   102 NVB=   102

 **** Warning!!: The largest alpha MO coefficient is  0.34547202D+02

 Symmetrizing basis deriv contribution to polar:
[...]
  11                   -1.42700   1.77783   0.82823  -1.26079   2.23585
  12                   -1.40939   1.73720   0.82315  -1.23457   2.19748
  13                   -1.39202   1.69568   0.81788  -1.20844   2.15848
  14                   -1.37479   1.65335   0.81250  -1.18240   2.11881
  15                   -1.35766   1.61032   0.80711  -1.15646   2.07850
  16                   -1.34059   1.56673   0.80180  -1.13063   2.03762
  17                   -1.32352   1.52273   0.79667  -1.10498   1.99630
  18                   -1.30643   1.47851   0.79183  -1.07956   1.95467
  19                   -1.28925   1.43421   0.78737  -1.05440   1.91288
  20                   -1.27196   1.38997   0.78342  -1.02949   1.87104
  21                   -1.25450   1.34586   0.78006  -1.00481   1.82922
  22                   -1.23683   1.30191   0.77737  -0.98032   1.78751
  23                   -1.21889   1.25808   0.77544  -0.95596   1.74595
  24                   -1.20061   1.21434   0.77436  -0.93166   1.70461
  25                   -1.18193   1.17063   0.77420  -0.90734   1.66356
  26                   -1.16277   1.12690   0.77507  -0.88295   1.62289
  27                   -1.14305   1.08305   0.77707  -0.85842   1.58274
  28                   -1.12267   1.03904   0.78034  -0.83365   1.54327
  29                   -1.10156   0.99481   0.78500  -0.80857   1.50469
  30                   -1.07963   0.95031   0.79119  -0.78311   1.46721
  31                   -1.05684   0.90549   0.79903  -0.75722   1.43110
  32                   -1.03319   0.86028   0.80860  -0.73085   1.39664
  33                   -1.00876   0.81456   0.81999  -0.70394   1.36413
  34                   -0.98373   0.76817   0.83326  -0.67638   1.33393
  35                   -0.95844   0.72076   0.84860  -0.64797   1.30655
  36                   -0.93354   0.67169   0.86634  -0.61835   1.28286
  37                   -0.91010   0.61998   0.88711  -0.58708   1.26446
  38                   -0.88956   0.56479   0.91132  -0.55405   1.25335
  39                   -0.87262   0.50638   0.93836  -0.51993   1.25027
  40                   -0.85851   0.44575   0.96670  -0.48584   1.25385
  41                   -0.84550   0.38350   0.99474  -0.45277   1.26179
  42                   -0.83248   0.32032   1.02194  -0.42079   1.27209
  43                   -0.81779   0.25597   1.04700  -0.39124   1.28370
  44                   -0.79988   0.19071   1.06924  -0.36507   1.29531
  45                   -0.77738   0.12513   1.08804  -0.34347   1.30594
  46                   -0.74924   0.06022   1.10301  -0.32738   1.31486
  47                   -0.71510  -0.00286   1.11416  -0.31706   1.32177
  48                   -0.67531  -0.06321   1.12197  -0.31199   1.32668
  49                   -0.63068  -0.12048   1.12707  -0.31121   1.32987
  50                   -0.58219  -0.17480   1.13007  -0.31369   1.33165
  51                   -0.53094  -0.22660   1.13152  -0.31859   1.33232
  52                   -0.47811  -0.27657   1.13185  -0.32528   1.33214
  53                   -0.42505  -0.32563   1.13141  -0.33341   1.33136
  54                   -0.37348  -0.37495   1.13053  -0.34275   1.33020
  55                   -0.32554  -0.42587   1.12958  -0.35317   1.32890
  56                   -0.28347  -0.47949   1.12901  -0.36441   1.32778
  57                   -0.24848  -0.53591   1.12940  -0.37588   1.32725
  58                   -0.21969  -0.59409   1.13127  -0.38670   1.32772
  59                   -0.19488  -0.65257   1.13493  -0.39601   1.32953
  60                   -0.17204  -0.71020   1.14048  -0.40311   1.33291
  61                   -0.14986  -0.76632   1.14781  -0.40761   1.33795
  62                   -0.12753  -0.82069   1.15673  -0.40930   1.34459
  63                   -0.10451  -0.87322   1.16698  -0.40814   1.35269
  64                   -0.08040  -0.92395   1.17830  -0.40420   1.36201
  65                   -0.05491  -0.97289   1.19040  -0.39758   1.37229
  66                   -0.02783  -1.02003   1.20297  -0.38842   1.38319
  67                    0.00097  -1.06530   1.21568  -0.37692   1.39436
  68                    0.03158  -1.10862   1.22814  -0.36335   1.40539
  69                    0.06402  -1.14983   1.23994  -0.34807   1.41588
  70                    0.09826  -1.18876   1.25059  -0.33162   1.42536
  71                    0.13419  -1.22518   1.25951  -0.31475   1.43334
  72                    0.17166  -1.25880   1.26611  -0.29851   1.43936
  73                    0.21036  -1.28932   1.26977  -0.28422   1.44297
  74                    0.24979  -1.31643   1.27003  -0.27327   1.44387
  75                    0.28933  -1.33993   1.26675  -0.26673   1.44204
  76                    0.32849  -1.35988   1.26022  -0.26496   1.43778
  77                    0.36709  -1.37659   1.25102  -0.26759   1.43159
  78                    0.40519  -1.39040   1.23984  -0.27405   1.42407
  79                    0.44259  -1.40140   1.22743  -0.28376   1.41579
  80                    0.47849  -1.40951   1.21472  -0.29598   1.40738
  81                    0.51195  -1.41481   1.20263  -0.30953   1.39945
                          X12       Y12       Z12
   1                    0.60702   1.70864  -1.18379
   2                    0.61439   1.71078  -1.17113
   3                    0.62171   1.71192  -1.15881
   4                    0.62892   1.71209  -1.14690
   5                    0.63596   1.71131  -1.13549
   6                    0.64276   1.70956  -1.12468
   7                    0.64927   1.70682  -1.11457
   8                    0.65544   1.70307  -1.10527
   9                    0.66123   1.69828  -1.09685
  10                    0.66665   1.69246  -1.08939
  11                    0.67176   1.68566  -1.08292
  12                    0.67665   1.67796  -1.07743
  13                    0.68146   1.66951  -1.07285
  14                    0.68639   1.66049  -1.06911
  15                    0.69161   1.65109  -1.06608
  16                    0.69726   1.64153  -1.06367
  17                    0.70345   1.63204  -1.06175
  18                    0.71017   1.62280  -1.06025
  19                    0.71736   1.61398  -1.05908
  20                    0.72488   1.60568  -1.05822
  21                    0.73252   1.59799  -1.05764
  22                    0.74008   1.59096  -1.05735
  23                    0.74731   1.58462  -1.05735
  24                    0.75400   1.57897  -1.05767
  25                    0.75995   1.57400  -1.05837
  26                    0.76498   1.56967  -1.05947
  27                    0.76895   1.56593  -1.06103
  28                    0.77174   1.56270  -1.06308
  29                    0.77328   1.55990  -1.06568
  30                    0.77355   1.55739  -1.06883
  31                    0.77257   1.55506  -1.07255
  32                    0.77041   1.55277  -1.07684
  33                    0.76719   1.55036  -1.08166
  34                    0.76305   1.54772  -1.08698
  35                    0.75814   1.54476  -1.09276
  36                    0.75265   1.54138  -1.09893
  37                    0.74679   1.53757  -1.10542
  38                    0.74084   1.53331  -1.11210
  39                    0.73499   1.52861  -1.11885
  40                    0.72924   1.52329  -1.12577
  41                    0.72341   1.51688  -1.13315
  42                    0.71750   1.50970  -1.14085
  43                    0.71122   1.50067  -1.14939
  44                    0.70457   1.48949  -1.15879
  45                    0.69765   1.47592  -1.16894
  46                    0.69071   1.46010  -1.17949
  47                    0.68412   1.44263  -1.18989
  48                    0.67823   1.42446  -1.19955
  49                    0.67331   1.40661  -1.20804
  50                    0.66948   1.38992  -1.21512
  51                    0.66678   1.37505  -1.22070
  52                    0.66523   1.36243  -1.22481
  53                    0.66486   1.35242  -1.22748
  54                    0.66578   1.34543  -1.22869
  55                    0.66821   1.34205  -1.22828
  56                    0.67253   1.34313  -1.22585
  57                    0.67911   1.34955  -1.22081
  58                    0.68816   1.36171  -1.21248
  59                    0.69962   1.37930  -1.20028
  60                    0.71323   1.40147  -1.18386
  61                    0.72858   1.42704  -1.16312
  62                    0.74515   1.45478  -1.13820
  63                    0.76248   1.48356  -1.10939
  64                    0.78014   1.51243  -1.07707
  65                    0.79779   1.54068  -1.04167
  66                    0.81514   1.56780  -1.00363
  67                    0.83198   1.59346  -0.96336
  68                    0.84811   1.61749  -0.92129
  69                    0.86337   1.63986  -0.87785
  70                    0.87761   1.66067  -0.83347
  71                    0.89068   1.68017  -0.78866
  72                    0.90241   1.69870  -0.74404
  73                    0.91266   1.71667  -0.70044
  74                    0.92138   1.73449  -0.65881
  75                    0.92863   1.75239  -0.62003
  76                    0.93472   1.77034  -0.58442
  77                    0.94007   1.78814  -0.55146
  78                    0.94508   1.80546  -0.52008
  79                    0.94995   1.82181  -0.48940
  80                    0.95465   1.83662  -0.45922
  81                    0.95899   1.84953  -0.42995
 --------------------------------------------------------------------------
 
 Total number of points:                   80
 Total number of gradient calculations:    81
 Total number of Hessian calculations:     81
 IRC-IRC-IRC-IRC-IRC-IRC-IRC-IRC-IRC-IRC-IRC-IRC-IRC-IRC-IRC-IRC-IRC-IRC
                          Input orientation:                          
 ---------------------------------------------------------------------
 Center     Atomic      Atomic             Coordinates (Angstroms)
 Number     Number       Type             X           Y           Z
 ---------------------------------------------------------------------
      1          6           0       -0.832259    0.954231    0.371157
      2          6           0        0.487780    1.019090   -0.351548
      3          6           0        1.516493    0.215866   -0.139713
      4          8           0       -1.811309    0.111035   -0.253530
      5          8           0       -1.428033   -1.260700    0.045155
      6          8           0        2.456976   -0.463182    0.016639
      7          1           0       -1.246639   -1.597934   -0.851114
      8          1           0       -0.722340    0.646604    1.414641
      9          1           0       -1.314307    1.936661    0.340928
     10          1           0        0.278980   -1.632866    2.149494
     11          1           0        0.859023   -1.530352    2.602952
     12          1           0        0.607019    1.708646   -1.183852
 ---------------------------------------------------------------------
                    Distance matrix (angstroms):
                    1          2          3          4          5
     1  C    0.000000
     2  C    1.506324   0.000000
     3  C    2.514519   1.322231   0.000000
     4  O    1.435183   2.473859   3.331397   0.000000
     5  O    2.316709   3.004190   3.299191   1.455256   0.000000
     6  O    3.599140   2.492072   1.170496   4.315202   3.966125
     7  H    2.859930   3.179087   3.380956   1.896453   0.974642
     8  H    1.093424   2.173146   2.759334   2.062882   2.451796
     9  H    1.094739   2.137516   3.347473   1.983255   3.213025
    10  H    3.330226   3.651258   3.192134   3.631119   2.735077
    11  H    3.743594   3.920019   3.317191   4.240792   3.441754
    12  H    2.249159   1.087398   2.036114   3.044038   3.803802
                    6          7          8          9         10
     6  O    0.000000
     7  H    3.969562   0.000000
     8  H    3.646105   3.232103   0.000000
     9  H    4.481850   3.730805   1.779756   0.000000
    10  H    3.265103   3.366360   2.595888   4.307087   0.000000
    11  H    3.222006   4.045856   2.941416   4.675499   0.743360
    12  H    3.095215   3.805291   3.106010   2.463420   4.731227
                   11         12
    11  H    0.000000
    12  H    4.989439   0.000000
 Symmetry turned off by external request.
 Stoichiometry    C3H6O3
 Framework group  C1[X(C3H6O3)]
 Deg. of freedom    30
 Full point group                 C1      NOp   1
 Rotational constants (GHZ):           5.7603364           2.0680628           1.7149059

 **********************************************************************

            Population analysis using the SCF Density.

 **********************************************************************

 Alpha  occ. eigenvalues --  -19.23729 -19.22739 -19.22574 -10.33221 -10.27003
 Alpha  occ. eigenvalues --  -10.21815  -1.13467  -1.13305  -0.93289  -0.80932
 Alpha  occ. eigenvalues --   -0.68509  -0.55846  -0.54762  -0.51151  -0.50091
 Alpha  occ. eigenvalues --   -0.48444  -0.45970  -0.45332  -0.43111  -0.41113
 Alpha  occ. eigenvalues --   -0.39195  -0.32850  -0.28807  -0.25634
 Alpha virt. eigenvalues --   -0.05853  -0.01358   0.00295   0.01607   0.02372
 Alpha virt. eigenvalues --    0.03580   0.04493   0.06150   0.07266   0.07883
 Alpha virt. eigenvalues --    0.09098   0.09852   0.10943   0.12082   0.13874
 Alpha virt. eigenvalues --    0.14477   0.16201   0.17395   0.18597   0.20467
 Alpha virt. eigenvalues --    0.20890   0.22832   0.24054   0.25863   0.26159
 Alpha virt. eigenvalues --    0.27628   0.28363   0.29186   0.29991   0.30960
 Alpha virt. eigenvalues --    0.31925   0.34890   0.36256   0.38613   0.39249
 Alpha virt. eigenvalues --    0.52759   0.61954   0.66564   0.67105   0.69999
 Alpha virt. eigenvalues --    0.74534   0.75159   0.80202   0.86012   0.86970
 Alpha virt. eigenvalues --    0.91270   0.94041   0.98671   1.00769   1.02582
 Alpha virt. eigenvalues --    1.07265   1.08984   1.12826   1.16690   1.19064
 Alpha virt. eigenvalues --    1.20205   1.21636   1.24799   1.26057   1.27032
 Alpha virt. eigenvalues --    1.29119   1.31944   1.35282   1.39159   1.42145
 Alpha virt. eigenvalues --    1.47579   1.50847   1.54306   1.55254   1.61854
 Alpha virt. eigenvalues --    1.67970   1.71380   1.77215   1.79859   1.86470
 Alpha virt. eigenvalues --    1.92639   1.93657   1.95872   1.97440   2.01054
 Alpha virt. eigenvalues --    2.02424   2.10467   2.17189   2.24319   2.31599
 Alpha virt. eigenvalues --    2.37738   2.45885   2.49381   2.54810   2.63936
 Alpha virt. eigenvalues --    2.82453   2.87884   3.02112   3.12021   3.12329
 Alpha virt. eigenvalues --    3.31420   3.95060   4.22008   4.28362   4.38823
 Alpha virt. eigenvalues --    4.50659   4.89257
          Condensed to atoms (all electrons):
               1          2          3          4          5          6
     1  C    5.754583  -0.179198  -0.168692   0.216169  -0.198713   0.025124
     2  C   -0.179198   5.951118  -0.009098  -0.099143   0.120350   0.076989
     3  C   -0.168692  -0.009098   5.915838  -0.061803   0.067151  -0.015032
     4  O    0.216169  -0.099143  -0.061803   8.077762   0.094337   0.000058
     5  O   -0.198713   0.120350   0.067151   0.094337   8.275312  -0.005673
     6  O    0.025124   0.076989  -0.015032   0.000058  -0.005673   8.346522
     7  H    0.015608  -0.018101   0.012145  -0.031768   0.189862  -0.000827
     8  H    0.473443  -0.111890  -0.019766  -0.034448  -0.009341  -0.000110
     9  H    0.360706  -0.025709   0.020831  -0.051505   0.013447  -0.000314
    10  H    0.038140  -0.039500   0.022454   0.003160  -0.011528  -0.003003
    11  H    0.025260  -0.029183   0.020957   0.001289  -0.007304  -0.003361
    12  H    0.008567   0.378477  -0.078483   0.002854  -0.000921   0.002652
               7          8          9         10         11         12
     1  C    0.015608   0.473443   0.360706   0.038140   0.025260   0.008567
     2  C   -0.018101  -0.111890  -0.025709  -0.039500  -0.029183   0.378477
     3  C    0.012145  -0.019766   0.020831   0.022454   0.020957  -0.078483
     4  O   -0.031768  -0.034448  -0.051505   0.003160   0.001289   0.002854
     5  O    0.189862  -0.009341   0.013447  -0.011528  -0.007304  -0.000921
     6  O   -0.000827  -0.000110  -0.000314  -0.003003  -0.003361   0.002652
     7  H    0.358756  -0.000399  -0.000386   0.000131   0.000121   0.000121
     8  H   -0.000399   0.510295  -0.028110  -0.000097  -0.000961   0.002932
     9  H   -0.000386  -0.028110   0.508248   0.000018   0.000016  -0.006028
    10  H    0.000131  -0.000097   0.000018   0.575480   0.391763  -0.000001
    11  H    0.000121  -0.000961   0.000016   0.391763   0.602253  -0.000002
    12  H    0.000121   0.002932  -0.006028  -0.000001  -0.000002   0.454361
 Mulliken charges:
               1
     1  C   -0.370996
     2  C   -0.015114
     3  C    0.293499
     4  O   -0.116961
     5  O   -0.526979
     6  O   -0.423025
     7  H    0.474735
     8  H    0.218451
     9  H    0.208785
    10  H    0.022982
    11  H   -0.000848
    12  H    0.235471
 Sum of Mulliken charges =  -0.00000
 Mulliken charges with hydrogens summed into heavy atoms:
               1
     1  C    0.056240
     2  C    0.220357
     3  C    0.293499
     4  O   -0.116961
     5  O   -0.029262
     6  O   -0.423873
 APT charges:
               1
     1  C   -1.115041
     2  C   -0.482023
     3  C    0.205800
     4  O   -0.158243
     5  O   -0.583224
     6  O   -0.005902
     7  H    0.612956
     8  H    0.390529
     9  H    0.567149
    10  H   -0.399470
    11  H    0.411799
    12  H    0.555670
 Sum of APT charges =  -0.00000
 APT charges with hydrogens summed into heavy atoms:
               1
     1  C   -0.157362
     2  C    0.073648
     3  C    0.205800
     4  O   -0.158243
     5  O   -0.369739
     6  O    0.405897
 Electronic spatial extent (au):  <R**2>=            706.4560
 Charge=             -0.0000 electrons
 Dipole moment (field-independent basis, Debye):
    X=              0.2197    Y=              1.3388    Z=             -1.0850  Tot=              1.7372
 Quadrupole moment (field-independent basis, Debye-Ang):
   XX=            -45.2894   YY=            -33.7250   ZZ=            -34.3060
   XY=              0.4601   XZ=             -0.2456   YZ=              1.9231
 Traceless Quadrupole moment (field-independent basis, Debye-Ang):
   XX=             -7.5160   YY=              4.0485   ZZ=              3.4675
   XY=              0.4601   XZ=             -0.2456   YZ=              1.9231
 Octapole moment (field-independent basis, Debye-Ang**2):
  XXX=             -3.4187  YYY=             -5.2063  ZZZ=             -8.5642  XYY=             -6.0460
  XXY=              5.0837  XXZ=             -5.0827  XZZ=             -0.6264  YZZ=             -2.5319
  YYZ=            -10.4410  XYZ=             -5.9646
 Hexadecapole moment (field-independent basis, Debye-Ang**3):
 XXXX=           -594.2996 YYYY=           -214.9834 ZZZZ=           -125.9088 XXXY=              2.5602
 XXXZ=             -4.7632 YYYX=             -7.7497 YYYZ=             26.6902 ZZZX=              0.4030
 ZZZY=             23.3513 XXYY=           -126.3212 XXZZ=           -105.1017 YYZZ=            -53.4312
 XXYZ=             10.9188 YYXZ=              3.3380 ZZXY=              2.2148
 N-N= 2.325390553978D+02 E-N=-1.269018652277D+03  KE= 3.403048986493D+02
  Exact polarizability:   0.000   0.000   0.000   0.000   0.000   0.000
 Approx polarizability:  95.939 -24.147  79.826   8.591  -3.636  53.728

 This type of calculation cannot be archived.


 THE ONLY DIFFERENCE BETWEEN ECCENTRICS AND JOGGERS
 IS THAT JOGGERS WEAR SWEATBANDS WHEN THEY RUN IN THE RAIN.
 Job cpu time:       0 days  5 hours 54 minutes 16.9 seconds.
 Elapsed time:       0 days  0 hours 22 minutes 46.1 seconds.
 File lengths (MBytes):  RWF=     28 Int=      0 D2E=      0 Chk=      4 Scr=      1
 Normal termination of Gaussian 16 at Wed Dec 23 22:39:34 2020.
