 Entering Gaussian System, Link 0=g16
 Initial command:
 /apps/cent7/gaussian/g16-B.01/g16-haswell/g16/l1.exe "/scratch/bell/zhao922/YARP/paper-example/KHP-network/pp_0/IRC-folder/Gau-61443.inp" -scrdir="/scratch/bell/zhao922/YARP/paper-example/KHP-network/pp_0/IRC-folder/"
 Entering Link 1 = /apps/cent7/gaussian/g16-B.01/g16-haswell/g16/l1.exe PID=     61445.
  
 Copyright (c) 1988-2017, Gaussian, Inc.  All Rights Reserved.
  
 This is part of the Gaussian(R) 16 program.  It is based on
 the Gaussian(R) 09 system (copyright 2009, Gaussian, Inc.),
 the Gaussian(R) 03 system (copyright 2003, Gaussian, Inc.),
 the Gaussian(R) 98 system (copyright 1998, Gaussian, Inc.),
 the Gaussian(R) 94 system (copyright 1995, Gaussian, Inc.),
 the Gaussian 92(TM) system (copyright 1992, Gaussian, Inc.),
 the Gaussian 90(TM) system (copyright 1990, Gaussian, Inc.),
 the Gaussian 88(TM) system (copyright 1988, Gaussian, Inc.),
 the Gaussian 86(TM) system (copyright 1986, Carnegie Mellon
 University), and the Gaussian 82(TM) system (copyright 1983,
 Carnegie Mellon University). Gaussian is a federally registered
 trademark of Gaussian, Inc.
  
 This software contains proprietary and confidential information,
 including trade secrets, belonging to Gaussian, Inc.
  
 This software is provided under written license and may be
 used, copied, transmitted, or stored only in accord with that
 written license.
  
 The following legend is applicable only to US Government
 contracts under FAR:
  
                    RESTRICTED RIGHTS LEGEND
  
 Use, reproduction and disclosure by the US Government is
 subject to restrictions as set forth in subparagraphs (a)
 and (c) of the Commercial Computer Software - Restricted
 Rights clause in FAR 52.227-19.
  
 Gaussian, Inc.
 340 Quinnipiac St., Bldg. 40, Wallingford CT 06492
  
  
 ---------------------------------------------------------------
 Warning -- This program may not be used in any manner that
 competes with the business of Gaussian, Inc. or will provide
 assistance to any competitor of Gaussian, Inc.  The licensee
 of this program is prohibited from giving any competitor of
 Gaussian, Inc. access to this program.  By using this program,
 the user acknowledges that Gaussian, Inc. is engaged in the
 business of creating and licensing software in the field of
 computational chemistry and represents and warrants to the
 licensee that it is not a competitor of Gaussian, Inc. and that
 it will not use this program in any manner prohibited above.
 ---------------------------------------------------------------
  

 Cite this work as:
 Gaussian 16, Revision B.01,
 M. J. Frisch, G. W. Trucks, H. B. Schlegel, G. E. Scuseria, 
 M. A. Robb, J. R. Cheeseman, G. Scalmani, V. Barone, 
 G. A. Petersson, H. Nakatsuji, X. Li, M. Caricato, A. V. Marenich, 
 J. Bloino, B. G. Janesko, R. Gomperts, B. Mennucci, H. P. Hratchian, 
 J. V. Ortiz, A. F. Izmaylov, J. L. Sonnenberg, D. Williams-Young, 
 F. Ding, F. Lipparini, F. Egidi, J. Goings, B. Peng, A. Petrone, 
 T. Henderson, D. Ranasinghe, V. G. Zakrzewski, J. Gao, N. Rega, 
 G. Zheng, W. Liang, M. Hada, M. Ehara, K. Toyota, R. Fukuda, 
 J. Hasegawa, M. Ishida, T. Nakajima, Y. Honda, O. Kitao, H. Nakai, 
 T. Vreven, K. Throssell, J. A. Montgomery, Jr., J. E. Peralta, 
 F. Ogliaro, M. J. Bearpark, J. J. Heyd, E. N. Brothers, K. N. Kudin, 
 V. N. Staroverov, T. A. Keith, R. Kobayashi, J. Normand, 
 K. Raghavachari, A. P. Rendell, J. C. Burant, S. S. Iyengar, 
 J. Tomasi, M. Cossi, J. M. Millam, M. Klene, C. Adamo, R. Cammi, 
 J. W. Ochterski, R. L. Martin, K. Morokuma, O. Farkas, 
 J. B. Foresman, and D. J. Fox, Gaussian, Inc., Wallingford CT, 2016.
 
 ******************************************
 Gaussian 16:  ES64L-G16RevB.01 20-Dec-2017
                23-Dec-2020 
 ******************************************
 %NProcShared=16
 Will use up to   16 processors via shared memory.
 %Mem=6GB
 ----------------------------------------------------------------------
 # B3LYP/6-31+G* IRC=(CALCALL, maxpoints=40, StepSize=15, maxcyc=100, R
 eport=Cartesians)
 ----------------------------------------------------------------------
 1/6=100,10=4,18=10,26=3,38=1,39=15,42=40,44=3,71=1,129=10,172=1/1,23;
 2/12=2,17=6,18=5,29=1,40=1/2;
 3/5=1,6=6,7=11,11=2,25=1,30=1,71=2,74=-5,140=1/1,2,3;
 4//1;
 5/5=2,38=5/2;
 8/6=4,10=90,11=11/1;
 11/6=1,8=1,9=11,15=111,16=1/1,2,10;
 10/6=1,13=1/2;
 6/7=2,8=2,9=2,10=2,18=1,28=1/1;
 7/10=1,25=1/1,2,3,16;
 1/6=100,10=4,18=10,26=3,39=15,42=40,44=3,71=1,129=10/23(2);
 2/29=1/2;
 99/5=20/99;
 2/29=1/2;
 3/5=1,6=6,7=11,11=2,25=1,30=1,71=2,74=-5,140=1/1,2,3;
 4/5=5,16=3,69=1/1;
 5/5=2,38=5/2;
 8/6=4,10=90,11=11/1;
 11/6=1,8=1,9=11,15=111,16=1/1,2,10;
 10/6=1,13=1/2;
 7/10=1,25=1/1,2,3,16;
 1/6=100,10=4,18=10,26=3,39=15,42=40,44=3,71=1,129=10/23(-8);
 2/29=1/2;
 6/7=2,8=2,9=2,10=2,18=1,19=2,28=1/1;
 99/5=20/99;
 ----------
 pp_3_0 IRC
 ----------
 Symbolic Z-matrix:
 Charge =  0 Multiplicity = 1
 C                    -0.58006  -0.10598  -0.85584 
 C                     1.60434   1.24835   0.23851 
 C                     1.40568  -0.12837   0.28527 
 O                    -1.69189   0.44839  -0.3796 
 O                    -2.23777  -0.43035   0.64498 
 O                     2.08688  -1.12008  -0.00101 
 H                    -2.88093   0.1817    1.05226 
 H                    -0.19245   0.48759  -1.67346 
 H                    -0.52125  -1.19109  -0.9021 
 H                     0.35365  -0.32134   0.73305 
 H                     2.59848   1.66913   0.10448 
 H                     0.80503   1.90634   0.56317 
 
 IRC-IRC-IRC-IRC-IRC-IRC-IRC-IRC-IRC-IRC-IRC-IRC-IRC-IRC-IRC-IRC-IRC-IRC
 ------------------------------------------------------------------------
 INPUT DATA FOR L123
 ------------------------------------------------------------------------
 GENERAL PARAMETERS:
 Follow reaction path in both directions.
 Maximum points per path      =  40
 Step size                    =   0.150 bohr
 Integration scheme           = HPC                                 
    Redo corrector integration= Yes                                 
    DWI Weight Power          =  2
    DWI will use Hessian update vectors when possible.
    Max correction cycles     = 100
 Initial Hessian              = CalcFC
 Hessian evaluation           = Analytic at all predictor steps
                              = Update at all corrector steps
 Hessian updating method      = Bofill                              
 ------------------------------------------------------------------------
 IRC-IRC-IRC-IRC-IRC-IRC-IRC-IRC-IRC-IRC-IRC-IRC-IRC-IRC-IRC-IRC-IRC-IRC
                          Input orientation:                          
 ---------------------------------------------------------------------
 Center     Atomic      Atomic             Coordinates (Angstroms)
 Number     Number       Type             X           Y           Z
 ---------------------------------------------------------------------
      1          6           0       -0.580062   -0.105982   -0.855835
      2          6           0        1.604339    1.248348    0.238514
      3          6           0        1.405683   -0.128371    0.285271
      4          8           0       -1.691894    0.448391   -0.379602
      5          8           0       -2.237770   -0.430350    0.644979
      6          8           0        2.086876   -1.120078   -0.001014
      7          1           0       -2.880927    0.181702    1.052259
      8          1           0       -0.192452    0.487589   -1.673460
      9          1           0       -0.521249   -1.191090   -0.902100
     10          1           0        0.353649   -0.321343    0.733049
     11          1           0        2.598483    1.669128    0.104481
     12          1           0        0.805027    1.906344    0.563171
 ---------------------------------------------------------------------
                    Distance matrix (angstroms):
                    1          2          3          4          5
     1  C    0.000000
     2  C    2.793460   0.000000
     3  C    2.290373   1.391763   0.000000
     4  O    1.330525   3.447775   3.220201   0.000000
     5  O    2.259569   4.212486   3.673599   1.455999   0.000000
     6  O    2.978535   2.428921   1.236716   4.108835   4.426691
     7  H    3.002926   4.681616   4.365712   1.880199   0.976799
     8  H    1.082164   2.731823   2.601936   1.980892   3.225073
     9  H    1.087685   3.430741   2.500458   2.081180   2.432822
    10  H    1.855465   2.067056   1.159534   2.452494   2.595205
    11  H    3.765152   1.087816   2.164823   4.486855   5.299933
    12  H    2.825156   1.085016   2.139645   3.041227   3.837375
                    6          7          8          9         10
     6  O    0.000000
     7  H    5.242431   0.000000
     8  H    3.252231   3.840704   0.000000
     9  H    2.760311   3.357403   1.876451   0.000000
    10  H    2.044725   3.288986   2.596899   2.048321   0.000000
    11  H    2.837700   5.756271   3.513748   4.350492   3.065347
    12  H    3.334767   4.098762   2.830256   3.674252   2.279296
                   11         12
    11  H    0.000000
    12  H    1.866321   0.000000
 Symmetry turned off by external request.
 Stoichiometry    C3H6O3
 Framework group  C1[X(C3H6O3)]
 Deg. of freedom    30
 Full point group                 C1      NOp   1
 Rotational constants (GHZ):           6.4498879           1.7099383           1.5598749
 Standard basis: 6-31+G(d) (6D, 7F)
   126 basis functions,   216 primitive gaussians,   126 cartesian basis functions
    24 alpha electrons       24 beta electrons
       nuclear repulsion energy       228.2682408906 Hartrees.
 NAtoms=   12 NActive=   12 NUniq=   12 SFac= 1.00D+00 NAtFMM=   60 NAOKFM=F Big=F
 Integral buffers will be    131072 words long.
 Raffenetti 2 integral format.
 Two-electron integral symmetry is turned off.
 One-electron integrals computed using PRISM.
 NBasis=   126 RedAO= T EigKep=  1.14D-04  NBF=   126
 NBsUse=   126 1.00D-06 EigRej= -1.00D+00 NBFU=   126
 ExpMin= 4.38D-02 ExpMax= 5.48D+03 ExpMxC= 8.25D+02 IAcc=3 IRadAn=         5 AccDes= 0.00D+00
 Harris functional with IExCor=  402 and IRadAn=       5 diagonalized for initial guess.
 HarFok:  IExCor=  402 AccDes= 0.00D+00 IRadAn=         5 IDoV= 1 UseB2=F ITyADJ=14
 ICtDFT=  3500011 ScaDFX=  1.000000  1.000000  1.000000  1.000000
 FoFCou: FMM=F IPFlag=           0 FMFlag=      100000 FMFlg1=           0
         NFxFlg=           0 DoJE=T BraDBF=F KetDBF=T FulRan=T
         wScrn=  0.000000 ICntrl=       500 IOpCl=  0 I1Cent=   200000004 NGrid=           0
         NMat0=    1 NMatS0=      1 NMatT0=    0 NMatD0=    1 NMtDS0=    0 NMtDT0=    0
 Symmetry not used in FoFCou.
 Keep R1 ints in memory in canonical form, NReq=47237219.
 Requested convergence on RMS density matrix=1.00D-08 within 128 cycles.
 Requested convergence on MAX density matrix=1.00D-06.
 Requested convergence on             energy=1.00D-06.
 No special actions if energy rises.
 EnCoef did     2 forward-backward iterations
 EnCoef did     3 forward-backward iterations
 SCF Done:  E(RB3LYP) =  -343.370166131     A.U. after   17 cycles
            NFock= 17  Conv=0.32D-08     -V/T= 2.0092
 DoSCS=F DFT=T ScalE2(SS,OS)=  1.000000  1.000000
 Range of M.O.s used for correlation:     1   126
 NBasis=   126 NAE=    24 NBE=    24 NFC=     0 NFV=     0
 NROrb=    126 NOA=    24 NOB=    24 NVA=   102 NVB=   102

 **** Warning!!: The largest alpha MO coefficient is  0.34085957D+02

 Symmetrizing basis deriv contribution to polar:
 IMax=3 JMax=2 DiffMx= 0.00D+00
 G2DrvN: will do    13 centers at a time, making    1 passes.
 Calling FoFCou, ICntrl=  3107 FMM=F I1Cent=   0 AccDes= 0.00D+00.
 End of G2Drv F.D. properties file   721 does not exist.
 End of G2Drv F.D. properties file   722 does not exist.
 End of G2Drv F.D. properties file   788 does not exist.
          IDoAtm=111111111111
          Differentiating once with respect to nuclear coordinates.
 Keep R1 ints in memory in canonical form, NReq=47193248.
          There are    39 degrees of freedom in the 1st order CPHF.  IDoFFX=6 NUNeed=     0.
     33 vectors produced by pass  0 Test12= 6.28D-15 2.56D-09 XBig12= 2.27D-01 2.39D-01.
 AX will form    33 AO Fock derivatives at one time.
     33 vectors produced by pass  1 Test12= 6.28D-15 2.56D-09 XBig12= 3.47D-02 3.81D-02.
     33 vectors produced by pass  2 Test12= 6.28D-15 2.56D-09 XBig12= 5.92D-04 5.60D-03.
     33 vectors produced by pass  3 Test12= 6.28D-15 2.56D-09 XBig12= 6.70D-06 3.73D-04.
     33 vectors produced by pass  4 Test12= 6.28D-15 2.56D-09 XBig12= 1.46D-08 1.73D-05.
     30 vectors produced by pass  5 Test12= 6.28D-15 2.56D-09 XBig12= 1.95D-11 5.55D-07.
      7 vectors produced by pass  6 Test12= 6.28D-15 2.56D-09 XBig12= 1.92D-14 2.20D-08.
 InvSVY:  IOpt=1 It=  1 EMax= 1.33D-15
 Solved reduced A of dimension   202 with    33 vectors.
 End of Minotr F.D. properties file   721 does not exist.
 End of Minotr F.D. properties file   722 does not exist.
 End of Minotr F.D. properties file   788 does not exist.

 **********************************************************************

            Population analysis using the SCF Density.

 **********************************************************************

 Alpha  occ. eigenvalues --  -19.31466 -19.28143 -19.11053 -10.32554 -10.25620
 Alpha  occ. eigenvalues --  -10.19441  -1.21291  -1.01187  -1.00286  -0.74896
 Alpha  occ. eigenvalues --   -0.70864  -0.61958  -0.56729  -0.55265  -0.50549
 Alpha  occ. eigenvalues --   -0.48881  -0.46575  -0.42670  -0.41530  -0.38077
 Alpha  occ. eigenvalues --   -0.37448  -0.34741  -0.24127  -0.21161
 Alpha virt. eigenvalues --   -0.10888  -0.06531  -0.01499   0.02019   0.02854
 Alpha virt. eigenvalues --    0.03522   0.04136   0.06219   0.07156   0.08089
 Alpha virt. eigenvalues --    0.09298   0.09667   0.11230   0.12359   0.12707
 Alpha virt. eigenvalues --    0.14541   0.15758   0.16038   0.17276   0.19738
 Alpha virt. eigenvalues --    0.20264   0.21548   0.23426   0.24481   0.25274
 Alpha virt. eigenvalues --    0.26671   0.28138   0.28798   0.30043   0.30794
 Alpha virt. eigenvalues --    0.32950   0.33052   0.34861   0.37508   0.39658
 Alpha virt. eigenvalues --    0.48664   0.60601   0.65600   0.66274   0.70730
 Alpha virt. eigenvalues --    0.74041   0.76882   0.78151   0.85012   0.88216
 Alpha virt. eigenvalues --    0.90174   0.92126   0.94484   0.98177   1.00382
 Alpha virt. eigenvalues --    1.02334   1.06848   1.09108   1.11424   1.14485
 Alpha virt. eigenvalues --    1.15707   1.20785   1.21619   1.24559   1.30162
 Alpha virt. eigenvalues --    1.31263   1.32040   1.36034   1.41279   1.44254
 Alpha virt. eigenvalues --    1.47435   1.48922   1.53395   1.63992   1.65586
 Alpha virt. eigenvalues --    1.68869   1.75272   1.76773   1.81155   1.82155
 Alpha virt. eigenvalues --    1.84287   1.89847   1.92005   2.00954   2.03964
 Alpha virt. eigenvalues --    2.08105   2.10624   2.17232   2.23739   2.25319
 Alpha virt. eigenvalues --    2.29859   2.39118   2.45992   2.49010   2.59534
 Alpha virt. eigenvalues --    2.64707   2.68556   2.81693   2.95369   3.04955
 Alpha virt. eigenvalues --    3.14733   3.92161   4.17563   4.20939   4.25495
 Alpha virt. eigenvalues --    4.29158   4.46546
          Condensed to atoms (all electrons):
               1          2          3          4          5          6
     1  C    5.575276   0.081360  -0.158104   0.160323  -0.053316  -0.052550
     2  C    0.081360   6.025951  -0.067712   0.027994  -0.015877  -0.172761
     3  C   -0.158104  -0.067712   5.332952  -0.028946   0.023524   0.464735
     4  O    0.160323   0.027994  -0.028946   7.904970   0.065704   0.003088
     5  O   -0.053316  -0.015877   0.023524   0.065704   8.227806   0.000545
     6  O   -0.052550  -0.172761   0.464735   0.003088   0.000545   8.304630
     7  H    0.011635   0.000478  -0.002401  -0.021266   0.193946   0.000029
     8  H    0.375645  -0.006704  -0.008285  -0.047599   0.011611   0.001540
     9  H    0.353757   0.006301  -0.018260  -0.025518  -0.001452   0.006930
    10  H    0.079744  -0.182455   0.350660  -0.038269   0.017176  -0.055255
    11  H    0.002800   0.383297  -0.044686  -0.000515   0.000105   0.000261
    12  H   -0.002034   0.319806   0.013194   0.002706  -0.000487   0.004555
               7          8          9         10         11         12
     1  C    0.011635   0.375645   0.353757   0.079744   0.002800  -0.002034
     2  C    0.000478  -0.006704   0.006301  -0.182455   0.383297   0.319806
     3  C   -0.002401  -0.008285  -0.018260   0.350660  -0.044686   0.013194
     4  O   -0.021266  -0.047599  -0.025518  -0.038269  -0.000515   0.002706
     5  O    0.193946   0.011611  -0.001452   0.017176   0.000105  -0.000487
     6  O    0.000029   0.001540   0.006930  -0.055255   0.000261   0.004555
     7  H    0.329249  -0.000295   0.000064  -0.000498  -0.000000   0.000001
     8  H   -0.000295   0.426165  -0.023138   0.001768   0.000258  -0.000659
     9  H    0.000064  -0.023138   0.443811  -0.024737  -0.000070   0.000115
    10  H   -0.000498   0.001768  -0.024737   0.662814   0.004716   0.002293
    11  H   -0.000000   0.000258  -0.000070   0.004716   0.477011  -0.028025
    12  H    0.000001  -0.000659   0.000115   0.002293  -0.028025   0.507781
 Mulliken charges:
               1
     1  C   -0.374535
     2  C   -0.399679
     3  C    0.143329
     4  O   -0.002672
     5  O   -0.469285
     6  O   -0.505746
     7  H    0.489057
     8  H    0.269691
     9  H    0.282196
    10  H    0.182042
    11  H    0.204847
    12  H    0.180754
 Sum of Mulliken charges =  -0.00000
 Mulliken charges with hydrogens summed into heavy atoms:
               1
     1  C    0.177352
     2  C   -0.014077
     3  C    0.325371
     4  O   -0.002672
     5  O    0.019772
     6  O   -0.505746
 APT charges:
               1
     1  C   -0.799808
     2  C   -0.718998
     3  C   -0.307197
     4  O    0.071437
     5  O   -0.808603
     6  O   -0.397996
     7  H    0.830620
     8  H    0.512184
     9  H    0.429950
    10  H    0.220504
    11  H    0.669039
    12  H    0.298868
 Sum of APT charges =  -0.00000
 APT charges with hydrogens summed into heavy atoms:
               1
     1  C    0.142326
     2  C    0.248908
     3  C   -0.086692
     4  O    0.071437
     5  O    0.022017
     6  O   -0.397996
 Electronic spatial extent (au):  <R**2>=            759.8320
 Charge=             -0.0000 electrons
 Dipole moment (field-independent basis, Debye):
    X=             -5.5210    Y=              2.8120    Z=             -0.3001  Tot=              6.2031
 Quadrupole moment (field-independent basis, Debye-Ang):
   XX=            -38.5414   YY=            -39.5587   ZZ=            -34.1678
   XY=              4.2123   XZ=             -3.3394   YZ=              1.0357
 Traceless Quadrupole moment (field-independent basis, Debye-Ang):
   XX=             -1.1188   YY=             -2.1360   ZZ=              3.2548
   XY=              4.2123   XZ=             -3.3394   YZ=              1.0357
 Octapole moment (field-independent basis, Debye-Ang**2):
  XXX=            -56.2953  YYY=              1.1336  ZZZ=             -2.6865  XYY=            -10.9474
  XXY=             20.2141  XXZ=             14.5455  XZZ=            -12.8446  YZZ=             -0.8874
  YYZ=             -0.4762  XYZ=             -3.3904
 Hexadecapole moment (field-independent basis, Debye-Ang**3):
 XXXX=           -607.7489 YYYY=           -187.4462 ZZZZ=           -100.7781 XXXY=             10.0925
 XXXZ=            -51.8670 YYYX=              3.5618 YYYZ=              1.1656 ZZZX=            -14.9735
 ZZZY=             -5.7683 XXYY=           -155.6324 XXZZ=           -116.3938 YYZZ=            -49.3089
 XXYZ=              4.5656 YYXZ=             -2.4137 ZZXY=             -6.5697
 N-N= 2.282682408906D+02 E-N=-1.260404527894D+03  KE= 3.402425331759D+02
  Exact polarizability:   0.000   0.000   0.000   0.000   0.000   0.000
 Approx polarizability: 194.028  21.236 121.222  28.171   6.731  76.767
 Calling FoFJK, ICntrl=    100127 FMM=F ISym2X=0 I1Cent= 0 IOpClX= 0 NMat=1 NMatS=1 NMatT=0.
 -------------------------------------------------------------------
 Center     Atomic                   Forces (Hartrees/Bohr)
 Number     Number              X              Y              Z
 -------------------------------------------------------------------
      1        6           0.000000170    0.000000539   -0.000000430
      2        6           0.000000393   -0.000000048    0.000000606
      3        6          -0.000000201   -0.000000610    0.000000134
      4        8           0.000000202    0.000000570   -0.000000482
      5        8          -0.000000393    0.000000136   -0.000000526
      6        8          -0.000000070   -0.000000526   -0.000000010
      7        1          -0.000000453    0.000000281   -0.000000446
      8        1           0.000000536    0.000000719   -0.000000099
      9        1          -0.000000121    0.000000081   -0.000000447
     10        1          -0.000000375   -0.000000259    0.000000025
     11        1           0.000000115   -0.000000550    0.000000997
     12        1           0.000000199   -0.000000333    0.000000678
 -------------------------------------------------------------------
 Cartesian Forces:  Max     0.000000997 RMS     0.000000423
 IRC-IRC-IRC-IRC-IRC-IRC-IRC-IRC-IRC-IRC-IRC-IRC-IRC-IRC-IRC-IRC-IRC-IRC
          ******** Start new reaction path calculation ********
 Supplied step size of   0.1500 bohr.
    Integration on MW PES will use step size of   0.1746 sqrt(amu)*bohr.
 Point Number:   0          Path Number:   1
 Calculating another point on the path.
 IRC-IRC-IRC-IRC-IRC-IRC-IRC-IRC-IRC-IRC-IRC-IRC-IRC-IRC-IRC-IRC-IRC-IRC
                          Input orientation:                          
 ---------------------------------------------------------------------
 Center     Atomic      Atomic             Coordinates (Angstroms)
 Number     Number       Type             X           Y           Z
 ---------------------------------------------------------------------
      1          6           0       -0.578688   -0.080785   -0.851599
      2          6           0        1.608740    1.279641    0.239841
      3          6           0        1.412669   -0.093922    0.275767
      4          8           0       -1.691202    0.478672   -0.380941
      5          8           0       -2.237262   -0.400300    0.643812
      6          8           0        2.086812   -1.091005   -0.000348
      7          1           0       -2.880521    0.211390    1.051389
      8          1           0       -0.179420    0.517843   -1.660392
      9          1           0       -0.533478   -1.166271   -0.915845
     10          1           0        0.327445   -0.283515    0.675223
     11          1           0        2.607270    1.698981    0.136134
     12          1           0        0.801987    1.936542    0.547641
 ---------------------------------------------------------------------
                    Distance matrix (angstroms):
                    1          2          3          4          5
     1  C    0.000000
     2  C    2.797649   0.000000
     3  C    2.288369   1.387951   0.000000
     4  O    1.331240   3.452034   3.223840   0.000000
     5  O    2.255928   4.216292   3.681212   1.456328   0.000000
     6  O    2.974905   2.430269   1.234861   4.108786   4.426017
     7  H    3.000861   4.685428   4.373361   1.880821   0.976763
     8  H    1.082551   2.718223   2.580255   1.980912   3.222895
     9  H    1.088324   3.450680   2.521381   2.081413   2.433541
    10  H    1.786998   2.067542   1.171845   2.402363   2.567557
    11  H    3.780676   1.087963   2.158951   4.498153   5.304168
    12  H    2.816690   1.084947   2.137670   3.033750   3.834985
                    6          7          8          9         10
     6  O    0.000000
     7  H    5.241830   0.000000
     8  H    3.237274   3.839741   0.000000
     9  H    2.776638   3.358060   1.875085   0.000000
    10  H    2.050319   3.267641   2.520750   2.012944   0.000000
    11  H    2.841395   5.759033   3.519692   4.379569   3.068958
    12  H    3.334233   4.097654   2.802013   3.681400   2.273789
                   11         12
    11  H    0.000000
    12  H    1.866767   0.000000
 Symmetry turned off by external request.
 Stoichiometry    C3H6O3
 Framework group  C1[X(C3H6O3)]
 Deg. of freedom    30
 Full point group                 C1      NOp   1
 Rotational constants (GHZ):           6.4639154           1.7094795           1.5579259
 Standard basis: 6-31+G(d) (6D, 7F)
   126 basis functions,   216 primitive gaussians,   126 cartesian basis functions
    24 alpha electrons       24 beta electrons
       nuclear repulsion energy       228.3990709878 Hartrees.
 NAtoms=   12 NActive=   12 NUniq=   12 SFac= 1.00D+00 NAtFMM=   60 NAOKFM=F Big=F
 Integral buffers will be    131072 words long.
 Raffenetti 2 integral format.
 Two-electron integral symmetry is turned off.
 One-electron integrals computed using PRISM.
 NBasis=   126 RedAO= T EigKep=  1.14D-04  NBF=   126
 NBsUse=   126 1.00D-06 EigRej= -1.00D+00 NBFU=   126
 Initial guess from the checkpoint file:  "/scratch/bell/zhao922/YARP/paper-example/KHP-network/pp_0/IRC-folder/Gau-61445.chk"
 B after Tr=     0.002615    0.056830   -0.003213
         Rot=    1.000000   -0.000314    0.000136    0.000039 Ang=  -0.04 deg.
 ExpMin= 4.38D-02 ExpMax= 5.48D+03 ExpMxC= 8.25D+02 IAcc=3 IRadAn=         5 AccDes= 0.00D+00
 Harris functional with IExCor=  402 and IRadAn=       5 diagonalized for initial guess.
 HarFok:  IExCor=  402 AccDes= 0.00D+00 IRadAn=         5 IDoV= 1 UseB2=F ITyADJ=14
 ICtDFT=  3500011 ScaDFX=  1.000000  1.000000  1.000000  1.000000
 FoFCou: FMM=F IPFlag=           0 FMFlag=      100000 FMFlg1=           0
         NFxFlg=           0 DoJE=T BraDBF=F KetDBF=T FulRan=T
         wScrn=  0.000000 ICntrl=       500 IOpCl=  0 I1Cent=   200000004 NGrid=           0
         NMat0=    1 NMatS0=      1 NMatT0=    0 NMatD0=    1 NMtDS0=    0 NMtDT0=    0
 Symmetry not used in FoFCou.
 Keep R1 ints in memory in canonical form, NReq=47237219.
 Requested convergence on RMS density matrix=1.00D-08 within 128 cycles.
 Requested convergence on MAX density matrix=1.00D-06.
 Requested convergence on             energy=1.00D-06.
 No special actions if energy rises.
 SCF Done:  E(RB3LYP) =  -343.370435486     A.U. after   13 cycles
            NFock= 13  Conv=0.35D-08     -V/T= 2.0092
 DoSCS=F DFT=T ScalE2(SS,OS)=  1.000000  1.000000
 Range of M.O.s used for correlation:     1   126
 NBasis=   126 NAE=    24 NBE=    24 NFC=     0 NFV=     0
 NROrb=    126 NOA=    24 NOB=    24 NVA=   102 NVB=   102

 **** Warning!!: The largest alpha MO coefficient is  0.34332734D+02

 Symmetrizing basis deriv contribution to polar:
 IMax=3 JMax=2 DiffMx= 0.00D+00
 G2DrvN: will do    13 centers at a time, making    1 passes.
 Calling FoFCou, ICntrl=  3107 FMM=F I1Cent=   0 AccDes= 0.00D+00.
 End of G2Drv F.D. properties file   721 does not exist.
 End of G2Drv F.D. properties file   722 does not exist.
 End of G2Drv F.D. properties file   788 does not exist.
          IDoAtm=111111111111
          Differentiating once with respect to nuclear coordinates.
 Keep R1 ints in memory in canonical form, NReq=47193248.
          There are    39 degrees of freedom in the 1st order CPHF.  IDoFFX=6 NUNeed=     0.
     33 vectors produced by pass  0 Test12= 6.28D-15 2.56D-09 XBig12= 2.21D-01 2.30D-01.
 AX will form    33 AO Fock derivatives at one time.
     33 vectors produced by pass  1 Test12= 6.28D-15 2.56D-09 XBig12= 3.40D-02 3.94D-02.
     33 vectors produced by pass  2 Test12= 6.28D-15 2.56D-09 XBig12= 6.10D-04 5.37D-03.
     33 vectors produced by pass  3 Test12= 6.28D-15 2.56D-09 XBig12= 7.28D-06 3.94D-04.
     33 vectors produced by pass  4 Test12= 6.28D-15 2.56D-09 XBig12= 1.56D-08 1.70D-05.
     30 vectors produced by pass  5 Test12= 6.28D-15 2.56D-09 XBig12= 2.05D-11 5.95D-07.
      7 vectors produced by pass  6 Test12= 6.28D-15 2.56D-09 XBig12= 2.02D-14 2.01D-08.
 InvSVY:  IOpt=1 It=  1 EMax= 2.22D-15
 Solved reduced A of dimension   202 with    33 vectors.
 End of Minotr F.D. properties file   721 does not exist.
 End of Minotr F.D. properties file   722 does not exist.
 End of Minotr F.D. properties file   788 does not exist.
 Calling FoFJK, ICntrl=    100127 FMM=F ISym2X=0 I1Cent= 0 IOpClX= 0 NMat=1 NMatS=1 NMatT=0.
 -------------------------------------------------------------------
 Center     Atomic                   Forces (Hartrees/Bohr)
 Number     Number              X              Y              Z
 -------------------------------------------------------------------
      1        6           0.000188941   -0.002022845    0.002419301
      2        6           0.000892716    0.000424095    0.001020279
      3        6           0.002771595    0.001565830   -0.002825036
      4        8          -0.000705535    0.000232748   -0.000009560
      5        8          -0.000560184   -0.000008466    0.000067368
      6        8          -0.001229479   -0.000247923    0.000990273
      7        1          -0.000032019   -0.000010931    0.000006692
      8        1           0.000333206   -0.000060705    0.000483806
      9        1          -0.000469750   -0.000016634   -0.000465035
     10        1          -0.001064315    0.000330724   -0.002211441
     11        1          -0.000097681   -0.000165751    0.001003109
     12        1          -0.000027494   -0.000020143   -0.000479757
 -------------------------------------------------------------------
 Cartesian Forces:  Max     0.002825036 RMS     0.001076663
 IRC-IRC-IRC-IRC-IRC-IRC-IRC-IRC-IRC-IRC-IRC-IRC-IRC-IRC-IRC-IRC-IRC-IRC
 Pt  1 Step number   1 out of a maximum of 100
 Modified Bulirsch-Stoer Extrapolation Cycles:
    EPS =    0.000010000000000
      PEZero:  N= 2 I= 1 D=  4.55D-04 Err=  9.16D-04
      PEZero:  N= 3 I= 2 D=  4.55D-04 Err=  6.10D-04
      PEZero:  N= 3 I= 1 D=  9.09D-04 Err=  8.07D-08
 Maximum DWI energy   std dev =  0.000003687 at pt    43
 Maximum DWI gradient std dev =  0.042497972 at pt    41
 CORRECTOR INTEGRATION CONVERGENCE:
   Recorrection delta-x convergence threshold:    0.010000
   Delta-x Convergence Met
 Point Number:   1          Path Number:   1
   CHANGE IN THE REACTION COORDINATE =    0.17449
   NET REACTION COORDINATE UP TO THIS POINT =    0.17449
  # OF POINTS ALONG THE PATH =   1
  # OF STEPS =   1

 Calculating another point on the path.
 IRC-IRC-IRC-IRC-IRC-IRC-IRC-IRC-IRC-IRC-IRC-IRC-IRC-IRC-IRC-IRC-IRC-IRC
                          Input orientation:                          
 ---------------------------------------------------------------------
 Center     Atomic      Atomic             Coordinates (Angstroms)
 Number     Number       Type             X           Y           Z
 ---------------------------------------------------------------------
      1          6           0       -0.578222   -0.085120   -0.845561
      2          6           0        1.610319    1.280247    0.241999
      3          6           0        1.419045   -0.089942    0.269356
      4          8           0       -1.692442    0.479080   -0.381065
      5          8           0       -2.238162   -0.400309    0.643884
      6          8           0        2.084803   -1.091705    0.001322
      7          1           0       -2.881441    0.210983    1.051865
      8          1           0       -0.169158    0.517424   -1.647097
      9          1           0       -0.546821   -1.170364   -0.929027
     10          1           0        0.296475   -0.275464    0.613119
     11          1           0        2.611547    1.697428    0.163120
     12          1           0        0.798289    1.936750    0.535259
 ---------------------------------------------------------------------
                    Distance matrix (angstroms):
                    1          2          3          4          5
     1  C    0.000000
     2  C    2.799415   0.000000
     3  C    2.287387   1.383745   0.000000
     4  O    1.332503   3.455186   3.229270   0.000000
     5  O    2.252375   4.218599   3.689412   1.456590   0.000000
     6  O    2.970206   2.430887   1.232317   4.108669   4.424809
     7  H    2.998787   4.687762   4.381444   1.881192   0.976696
     8  H    1.082983   2.705018   2.562045   1.981086   3.220498
     9  H    1.088902   3.468436   2.543239   2.081676   2.434680
    10  H    1.711454   2.069819   1.188594   2.348091   2.537896
    11  H    3.790718   1.087530   2.151288   4.506089   5.305781
    12  H    2.808809   1.084615   2.136241   3.027903   3.833233
                    6          7          8          9         10
     6  O    0.000000
     7  H    5.240631   0.000000
     8  H    3.222875   3.838591   0.000000
     9  H    2.792344   3.358944   1.872667   0.000000
    10  H    2.058801   3.244731   2.440096   1.972362   0.000000
    11  H    2.843044   5.759540   3.521593   4.403670   3.074795
    12  H    3.333428   4.097019   2.777251   3.688850   2.269751
                   11         12
    11  H    0.000000
    12  H    1.866458   0.000000
 Symmetry turned off by external request.
 Stoichiometry    C3H6O3
 Framework group  C1[X(C3H6O3)]
 Deg. of freedom    30
 Full point group                 C1      NOp   1
 Rotational constants (GHZ):           6.4802307           1.7092995           1.5563918
 Standard basis: 6-31+G(d) (6D, 7F)
   126 basis functions,   216 primitive gaussians,   126 cartesian basis functions
    24 alpha electrons       24 beta electrons
       nuclear repulsion energy       228.5595582231 Hartrees.
 NAtoms=   12 NActive=   12 NUniq=   12 SFac= 1.00D+00 NAtFMM=   60 NAOKFM=F Big=F
 Integral buffers will be    131072 words long.
 Raffenetti 2 integral format.
 Two-electron integral symmetry is turned off.
 One-electron integrals computed using PRISM.
 NBasis=   126 RedAO= T EigKep=  1.13D-04  NBF=   126
 NBsUse=   126 1.00D-06 EigRej= -1.00D+00 NBFU=   126
 Initial guess from the checkpoint file:  "/scratch/bell/zhao922/YARP/paper-example/KHP-network/pp_0/IRC-folder/Gau-61445.chk"
 B after Tr=    -0.000677    0.000033   -0.000950
         Rot=    1.000000   -0.000292    0.000113    0.000041 Ang=  -0.04 deg.
 ExpMin= 4.38D-02 ExpMax= 5.48D+03 ExpMxC= 8.25D+02 IAcc=3 IRadAn=         5 AccDes= 0.00D+00
 Harris functional with IExCor=  402 and IRadAn=       5 diagonalized for initial guess.
 HarFok:  IExCor=  402 AccDes= 0.00D+00 IRadAn=         5 IDoV= 1 UseB2=F ITyADJ=14
 ICtDFT=  3500011 ScaDFX=  1.000000  1.000000  1.000000  1.000000
 FoFCou: FMM=F IPFlag=           0 FMFlag=      100000 FMFlg1=           0
         NFxFlg=           0 DoJE=T BraDBF=F KetDBF=T FulRan=T
         wScrn=  0.000000 ICntrl=       500 IOpCl=  0 I1Cent=   200000004 NGrid=           0
         NMat0=    1 NMatS0=      1 NMatT0=    0 NMatD0=    1 NMtDS0=    0 NMtDT0=    0
 Symmetry not used in FoFCou.
 Keep R1 ints in memory in canonical form, NReq=47237219.
 Requested convergence on RMS density matrix=1.00D-08 within 128 cycles.
 Requested convergence on MAX density matrix=1.00D-06.
 Requested convergence on             energy=1.00D-06.
 No special actions if energy rises.
 SCF Done:  E(RB3LYP) =  -343.371384523     A.U. after   13 cycles
            NFock= 13  Conv=0.37D-08     -V/T= 2.0092
 DoSCS=F DFT=T ScalE2(SS,OS)=  1.000000  1.000000
 Range of M.O.s used for correlation:     1   126
 NBasis=   126 NAE=    24 NBE=    24 NFC=     0 NFV=     0
 NROrb=    126 NOA=    24 NOB=    24 NVA=   102 NVB=   102

 **** Warning!!: The largest alpha MO coefficient is  0.34536034D+02

 Symmetrizing basis deriv contribution to polar:
 IMax=3 JMax=2 DiffMx= 0.00D+00
 G2DrvN: will do    13 centers at a time, making    1 passes.
 Calling FoFCou, ICntrl=  3107 FMM=F I1Cent=   0 AccDes= 0.00D+00.
 End of G2Drv F.D. properties file   721 does not exist.
 End of G2Drv F.D. properties file   722 does not exist.
 End of G2Drv F.D. properties file   788 does not exist.
          IDoAtm=111111111111
          Differentiating once with respect to nuclear coordinates.
 Keep R1 ints in memory in canonical form, NReq=47193248.
          There are    39 degrees of freedom in the 1st order CPHF.  IDoFFX=6 NUNeed=     0.
     33 vectors produced by pass  0 Test12= 6.28D-15 2.56D-09 XBig12= 2.13D-01 2.17D-01.
 AX will form    33 AO Fock derivatives at one time.
     33 vectors produced by pass  1 Test12= 6.28D-15 2.56D-09 XBig12= 3.33D-02 4.04D-02.
     33 vectors produced by pass  2 Test12= 6.28D-15 2.56D-09 XBig12= 6.31D-04 4.90D-03.
     33 vectors produced by pass  3 Test12= 6.28D-15 2.56D-09 XBig12= 7.99D-06 4.11D-04.
     33 vectors produced by pass  4 Test12= 6.28D-15 2.56D-09 XBig12= 1.69D-08 1.92D-05.
     30 vectors produced by pass  5 Test12= 6.28D-15 2.56D-09 XBig12= 2.17D-11 6.18D-07.
      7 vectors produced by pass  6 Test12= 6.28D-15 2.56D-09 XBig12= 2.14D-14 2.06D-08.
 InvSVY:  IOpt=1 It=  1 EMax= 2.00D-15
 Solved reduced A of dimension   202 with    33 vectors.
 End of Minotr F.D. properties file   721 does not exist.
 End of Minotr F.D. properties file   722 does not exist.
 End of Minotr F.D. properties file   788 does not exist.
 Calling FoFJK, ICntrl=    100127 FMM=F ISym2X=0 I1Cent= 0 IOpClX= 0 NMat=1 NMatS=1 NMatT=0.
 -------------------------------------------------------------------
 Center     Atomic                   Forces (Hartrees/Bohr)
 Number     Number              X              Y              Z
 -------------------------------------------------------------------
      1        6           0.000778304   -0.004418976    0.006107814
      2        6           0.001398750    0.000572382    0.002102158
      3        6           0.006814708    0.003707112   -0.006005881
      4        8          -0.001816236    0.000639981   -0.000151119
      5        8          -0.001119948   -0.000016164    0.000087830
      6        8          -0.002835120   -0.000694566    0.002132743
      7        1          -0.000062810   -0.000033965    0.000030235
      8        1           0.000802117   -0.000075520    0.001072577
      9        1          -0.001113731   -0.000183523   -0.001136701
     10        1          -0.002779241    0.000726430   -0.005348382
     11        1           0.000155988   -0.000221712    0.002119070
     12        1          -0.000222782   -0.000001479   -0.001010343
 -------------------------------------------------------------------
 Cartesian Forces:  Max     0.006814708 RMS     0.002501781
 IRC-IRC-IRC-IRC-IRC-IRC-IRC-IRC-IRC-IRC-IRC-IRC-IRC-IRC-IRC-IRC-IRC-IRC
 Pt  2 Step number   1 out of a maximum of 100
 Modified Bulirsch-Stoer Extrapolation Cycles:
    EPS =    0.000010000000000
      PEZero:  N= 2 I= 1 D=  9.09D-04 Err=  4.83D-05
      PEZero:  N= 3 I= 2 D=  9.09D-04 Err=  3.21D-05
      PEZero:  N= 3 I= 1 D=  1.82D-03 Err=  8.60D-08
 Maximum DWI energy   std dev =  0.000005612 at pt    67
 Maximum DWI gradient std dev =  0.025161211 at pt    14
 CORRECTOR INTEGRATION CONVERGENCE:
   Recorrection delta-x convergence threshold:    0.010000
   Delta-x Convergence Met
 Point Number:   2          Path Number:   1
   CHANGE IN THE REACTION COORDINATE =    0.17448
   NET REACTION COORDINATE UP TO THIS POINT =    0.34897
  # OF POINTS ALONG THE PATH =   2
  # OF STEPS =   1

 Calculating another point on the path.
 IRC-IRC-IRC-IRC-IRC-IRC-IRC-IRC-IRC-IRC-IRC-IRC-IRC-IRC-IRC-IRC-IRC-IRC
                          Input orientation:                          
 ---------------------------------------------------------------------
 Center     Atomic      Atomic             Coordinates (Angstroms)
 Number     Number       Type             X           Y           Z
 ---------------------------------------------------------------------
      1          6           0       -0.577282   -0.089223   -0.839402
      2          6           0        1.611358    1.280566    0.243924
      3          6           0        1.425867   -0.086292    0.263884
      4          8           0       -1.693836    0.479580   -0.381222
      5          8           0       -2.238907   -0.400320    0.643925
      6          8           0        2.082701   -1.092219    0.002804
      7          1           0       -2.882150    0.210576    1.052320
      8          1           0       -0.159896    0.516641   -1.634906
      9          1           0       -0.559816   -1.173775   -0.942639
     10          1           0        0.263419   -0.267035    0.549173
     11          1           0        2.614689    1.695335    0.186339
     12          1           0        0.795134    1.937004    0.524149
 ---------------------------------------------------------------------
                    Distance matrix (angstroms):
                    1          2          3          4          5
     1  C    0.000000
     2  C    2.800011   0.000000
     3  C    2.286887   1.379531   0.000000
     4  O    1.334225   3.457845   3.235571   0.000000
     5  O    2.249008   4.220179   3.697785   1.456796   0.000000
     6  O    2.964932   2.431134   1.229424   4.108560   4.423354
     7  H    2.996816   4.689349   4.389621   1.881355   0.976597
     8  H    1.083563   2.692754   2.546287   1.981430   3.218101
     9  H    1.089594   3.485071   2.565396   2.082012   2.436137
    10  H    1.632953   2.074893   1.210513   2.292142   2.507664
    11  H    3.798088   1.087209   2.143247   4.512601   5.306463
    12  H    2.801498   1.084278   2.135249   3.023037   3.831818
                    6          7          8          9         10
     6  O    0.000000
     7  H    5.239133   0.000000
     8  H    3.209325   3.837385   0.000000
     9  H    2.807741   3.359989   1.869940   0.000000
    10  H    2.071047   3.221161   2.358717   1.930129   0.000000
    11  H    2.843793   5.759312   3.522013   4.425366   3.083993
    12  H    3.332540   4.096576   2.755183   3.696526   2.267406
                   11         12
    11  H    0.000000
    12  H    1.866360   0.000000
 Symmetry turned off by external request.
 Stoichiometry    C3H6O3
 Framework group  C1[X(C3H6O3)]
 Deg. of freedom    30
 Full point group                 C1      NOp   1
 Rotational constants (GHZ):           6.4967378           1.7091733           1.5550478
 Standard basis: 6-31+G(d) (6D, 7F)
   126 basis functions,   216 primitive gaussians,   126 cartesian basis functions
    24 alpha electrons       24 beta electrons
       nuclear repulsion energy       228.7228838293 Hartrees.
 NAtoms=   12 NActive=   12 NUniq=   12 SFac= 1.00D+00 NAtFMM=   60 NAOKFM=F Big=F
 Integral buffers will be    131072 words long.
 Raffenetti 2 integral format.
 Two-electron integral symmetry is turned off.
 One-electron integrals computed using PRISM.
 NBasis=   126 RedAO= T EigKep=  1.11D-04  NBF=   126
 NBsUse=   126 1.00D-06 EigRej= -1.00D+00 NBFU=   126
 Initial guess from the checkpoint file:  "/scratch/bell/zhao922/YARP/paper-example/KHP-network/pp_0/IRC-folder/Gau-61445.chk"
 B after Tr=    -0.000739    0.000037   -0.001062
         Rot=    1.000000   -0.000272    0.000097    0.000041 Ang=  -0.03 deg.
 ExpMin= 4.38D-02 ExpMax= 5.48D+03 ExpMxC= 8.25D+02 IAcc=3 IRadAn=         5 AccDes= 0.00D+00
 Harris functional with IExCor=  402 and IRadAn=       5 diagonalized for initial guess.
 HarFok:  IExCor=  402 AccDes= 0.00D+00 IRadAn=         5 IDoV= 1 UseB2=F ITyADJ=14
 ICtDFT=  3500011 ScaDFX=  1.000000  1.000000  1.000000  1.000000
 FoFCou: FMM=F IPFlag=           0 FMFlag=      100000 FMFlg1=           0
         NFxFlg=           0 DoJE=T BraDBF=F KetDBF=T FulRan=T
         wScrn=  0.000000 ICntrl=       500 IOpCl=  0 I1Cent=   200000004 NGrid=           0
         NMat0=    1 NMatS0=      1 NMatT0=    0 NMatD0=    1 NMtDS0=    0 NMtDT0=    0
 Symmetry not used in FoFCou.
 Keep R1 ints in memory in canonical form, NReq=47237219.
 Requested convergence on RMS density matrix=1.00D-08 within 128 cycles.
 Requested convergence on MAX density matrix=1.00D-06.
 Requested convergence on             energy=1.00D-06.
 No special actions if energy rises.
 SCF Done:  E(RB3LYP) =  -343.373255054     A.U. after   13 cycles
            NFock= 13  Conv=0.38D-08     -V/T= 2.0092
 DoSCS=F DFT=T ScalE2(SS,OS)=  1.000000  1.000000
 Range of M.O.s used for correlation:     1   126
 NBasis=   126 NAE=    24 NBE=    24 NFC=     0 NFV=     0
 NROrb=    126 NOA=    24 NOB=    24 NVA=   102 NVB=   102

 **** Warning!!: The largest alpha MO coefficient is  0.34645930D+02

 Symmetrizing basis deriv contribution to polar:
 IMax=3 JMax=2 DiffMx= 0.00D+00
 G2DrvN: will do    13 centers at a time, making    1 passes.
 Calling FoFCou, ICntrl=  3107 FMM=F I1Cent=   0 AccDes= 0.00D+00.
 End of G2Drv F.D. properties file   721 does not exist.
 End of G2Drv F.D. properties file   722 does not exist.
 End of G2Drv F.D. properties file   788 does not exist.
          IDoAtm=111111111111
          Differentiating once with respect to nuclear coordinates.
 Keep R1 ints in memory in canonical form, NReq=47193248.
          There are    39 degrees of freedom in the 1st order CPHF.  IDoFFX=6 NUNeed=     0.
     33 vectors produced by pass  0 Test12= 6.28D-15 2.56D-09 XBig12= 2.04D-01 2.02D-01.
 AX will form    33 AO Fock derivatives at one time.
     33 vectors produced by pass  1 Test12= 6.28D-15 2.56D-09 XBig12= 3.12D-02 4.12D-02.
     33 vectors produced by pass  2 Test12= 6.28D-15 2.56D-09 XBig12= 6.49D-04 4.16D-03.
     33 vectors produced by pass  3 Test12= 6.28D-15 2.56D-09 XBig12= 8.62D-06 4.19D-04.
     33 vectors produced by pass  4 Test12= 6.28D-15 2.56D-09 XBig12= 1.83D-08 2.12D-05.
     29 vectors produced by pass  5 Test12= 6.28D-15 2.56D-09 XBig12= 2.27D-11 8.26D-07.
      7 vectors produced by pass  6 Test12= 6.28D-15 2.56D-09 XBig12= 2.31D-14 2.12D-08.
 InvSVY:  IOpt=1 It=  1 EMax= 1.55D-15
 Solved reduced A of dimension   201 with    33 vectors.
 End of Minotr F.D. properties file   721 does not exist.
 End of Minotr F.D. properties file   722 does not exist.
 End of Minotr F.D. properties file   788 does not exist.
 Calling FoFJK, ICntrl=    100127 FMM=F ISym2X=0 I1Cent= 0 IOpClX= 0 NMat=1 NMatS=1 NMatT=0.
 -------------------------------------------------------------------
 Center     Atomic                   Forces (Hartrees/Bohr)
 Number     Number              X              Y              Z
 -------------------------------------------------------------------
      1        6           0.002165790   -0.007298349    0.011068975
      2        6           0.001467079    0.000428227    0.003318805
      3        6           0.012819695    0.006141953   -0.009048773
      4        8          -0.003577029    0.001345896   -0.000391541
      5        8          -0.001629875   -0.000026974    0.000078452
      6        8          -0.005158993   -0.000946175    0.003347610
      7        1          -0.000086626   -0.000065518    0.000058240
      8        1           0.001292692   -0.000158826    0.001735711
      9        1          -0.001932269   -0.000348300   -0.002080280
     10        1          -0.005273612    0.001291360   -0.009715922
     11        1           0.000304685   -0.000389440    0.003206132
     12        1          -0.000391538    0.000026145   -0.001577409
 -------------------------------------------------------------------
 Cartesian Forces:  Max     0.012819695 RMS     0.004358478
 IRC-IRC-IRC-IRC-IRC-IRC-IRC-IRC-IRC-IRC-IRC-IRC-IRC-IRC-IRC-IRC-IRC-IRC
 Pt  3 Step number   1 out of a maximum of 100
 Modified Bulirsch-Stoer Extrapolation Cycles:
    EPS =    0.000010000000000
      PEZero:  N= 2 I= 1 D=  9.09D-04 Err=  5.12D-05
      PEZero:  N= 3 I= 2 D=  9.09D-04 Err=  3.41D-05
      PEZero:  N= 3 I= 1 D=  1.82D-03 Err=  6.57D-08
 Maximum DWI energy   std dev =  0.000006070 at pt    68
 Maximum DWI gradient std dev =  0.011416172 at pt    15
 CORRECTOR INTEGRATION CONVERGENCE:
   Recorrection delta-x convergence threshold:    0.010000
   Delta-x Convergence Met
 Point Number:   3          Path Number:   1
   CHANGE IN THE REACTION COORDINATE =    0.17451
   NET REACTION COORDINATE UP TO THIS POINT =    0.52348
  # OF POINTS ALONG THE PATH =   3
  # OF STEPS =   1

 Calculating another point on the path.
 IRC-IRC-IRC-IRC-IRC-IRC-IRC-IRC-IRC-IRC-IRC-IRC-IRC-IRC-IRC-IRC-IRC-IRC
                          Input orientation:                          
 ---------------------------------------------------------------------
 Center     Atomic      Atomic             Coordinates (Angstroms)
 Number     Number       Type             X           Y           Z
 ---------------------------------------------------------------------
      1          6           0       -0.575889   -0.093115   -0.833197
      2          6           0        1.611917    1.280637    0.245672
      3          6           0        1.433134   -0.082976    0.259276
      4          8           0       -1.695399    0.480178   -0.381411
      5          8           0       -2.239517   -0.400331    0.643945
      6          8           0        2.080530   -1.092564    0.004114
      7          1           0       -2.882688    0.210153    1.052742
      8          1           0       -0.151749    0.515504   -1.623946
      9          1           0       -0.572496   -1.176538   -0.956675
     10          1           0        0.228076   -0.258333    0.484122
     11          1           0        2.616913    1.692797    0.205871
     12          1           0        0.792500    1.937308    0.514399
 ---------------------------------------------------------------------
                    Distance matrix (angstroms):
                    1          2          3          4          5
     1  C    0.000000
     2  C    2.799581   0.000000
     3  C    2.286871   1.375350   0.000000
     4  O    1.336442   3.460102   3.242737   0.000000
     5  O    2.245883   4.221116   3.706353   1.456955   0.000000
     6  O    2.959147   2.431055   1.226171   4.108502   4.421694
     7  H    2.995006   4.690285   4.397935   1.881320   0.976460
     8  H    1.084249   2.681682   2.533093   1.981917   3.215721
     9  H    1.090441   3.500715   2.587850   2.082438   2.437918
    10  H    1.552091   2.083340   1.238334   2.234793   2.476837
    11  H    3.803042   1.086957   2.134842   4.517895   5.306411
    12  H    2.794839   1.083917   2.134724   3.019163   3.830727
                    6          7          8          9         10
     6  O    0.000000
     7  H    5.237387   0.000000
     8  H    3.196800   3.836134   0.000000
     9  H    2.822891   3.361199   1.866892   0.000000
    10  H    2.087567   3.196820   2.277508   1.886772   0.000000
    11  H    2.843703   5.758561   3.521326   4.444876   3.096913
    12  H    3.331597   4.096326   2.735992   3.704499   2.267231
                   11         12
    11  H    0.000000
    12  H    1.866402   0.000000
 Symmetry turned off by external request.
 Stoichiometry    C3H6O3
 Framework group  C1[X(C3H6O3)]
 Deg. of freedom    30
 Full point group                 C1      NOp   1
 Rotational constants (GHZ):           6.5130374           1.7090372           1.5538451
 Standard basis: 6-31+G(d) (6D, 7F)
   126 basis functions,   216 primitive gaussians,   126 cartesian basis functions
    24 alpha electrons       24 beta electrons
       nuclear repulsion energy       228.8865834154 Hartrees.
 NAtoms=   12 NActive=   12 NUniq=   12 SFac= 1.00D+00 NAtFMM=   60 NAOKFM=F Big=F
 Integral buffers will be    131072 words long.
 Raffenetti 2 integral format.
 Two-electron integral symmetry is turned off.
 One-electron integrals computed using PRISM.
 NBasis=   126 RedAO= T EigKep=  1.09D-04  NBF=   126
 NBsUse=   126 1.00D-06 EigRej= -1.00D+00 NBFU=   126
 Initial guess from the checkpoint file:  "/scratch/bell/zhao922/YARP/paper-example/KHP-network/pp_0/IRC-folder/Gau-61445.chk"
 B after Tr=    -0.000803    0.000039   -0.001160
         Rot=    1.000000   -0.000256    0.000083    0.000042 Ang=  -0.03 deg.
 ExpMin= 4.38D-02 ExpMax= 5.48D+03 ExpMxC= 8.25D+02 IAcc=3 IRadAn=         5 AccDes= 0.00D+00
 Harris functional with IExCor=  402 and IRadAn=       5 diagonalized for initial guess.
 HarFok:  IExCor=  402 AccDes= 0.00D+00 IRadAn=         5 IDoV= 1 UseB2=F ITyADJ=14
 ICtDFT=  3500011 ScaDFX=  1.000000  1.000000  1.000000  1.000000
 FoFCou: FMM=F IPFlag=           0 FMFlag=      100000 FMFlg1=           0
         NFxFlg=           0 DoJE=T BraDBF=F KetDBF=T FulRan=T
         wScrn=  0.000000 ICntrl=       500 IOpCl=  0 I1Cent=   200000004 NGrid=           0
         NMat0=    1 NMatS0=      1 NMatT0=    0 NMatD0=    1 NMtDS0=    0 NMtDT0=    0
 Symmetry not used in FoFCou.
 Keep R1 ints in memory in canonical form, NReq=47237219.
 Requested convergence on RMS density matrix=1.00D-08 within 128 cycles.
 Requested convergence on MAX density matrix=1.00D-06.
 Requested convergence on             energy=1.00D-06.
 No special actions if energy rises.
 SCF Done:  E(RB3LYP) =  -343.376308793     A.U. after   13 cycles
            NFock= 13  Conv=0.36D-08     -V/T= 2.0091
 DoSCS=F DFT=T ScalE2(SS,OS)=  1.000000  1.000000
 Range of M.O.s used for correlation:     1   126
 NBasis=   126 NAE=    24 NBE=    24 NFC=     0 NFV=     0
 NROrb=    126 NOA=    24 NOB=    24 NVA=   102 NVB=   102

 **** Warning!!: The largest alpha MO coefficient is  0.34649211D+02

 Symmetrizing basis deriv contribution to polar:
 IMax=3 JMax=2 DiffMx= 0.00D+00
 G2DrvN: will do    13 centers at a time, making    1 passes.
 Calling FoFCou, ICntrl=  3107 FMM=F I1Cent=   0 AccDes= 0.00D+00.
 End of G2Drv F.D. properties file   721 does not exist.
 End of G2Drv F.D. properties file   722 does not exist.
 End of G2Drv F.D. properties file   788 does not exist.
          IDoAtm=111111111111
          Differentiating once with respect to nuclear coordinates.
 Keep R1 ints in memory in canonical form, NReq=47193248.
          There are    39 degrees of freedom in the 1st order CPHF.  IDoFFX=6 NUNeed=     0.
     33 vectors produced by pass  0 Test12= 6.28D-15 2.56D-09 XBig12= 1.99D-01 1.84D-01.
 AX will form    33 AO Fock derivatives at one time.
     33 vectors produced by pass  1 Test12= 6.28D-15 2.56D-09 XBig12= 2.65D-02 4.14D-02.
     33 vectors produced by pass  2 Test12= 6.28D-15 2.56D-09 XBig12= 6.58D-04 3.78D-03.
     33 vectors produced by pass  3 Test12= 6.28D-15 2.56D-09 XBig12= 8.90D-06 4.14D-04.
     33 vectors produced by pass  4 Test12= 6.28D-15 2.56D-09 XBig12= 1.90D-08 2.24D-05.
     29 vectors produced by pass  5 Test12= 6.28D-15 2.56D-09 XBig12= 2.32D-11 9.14D-07.
      8 vectors produced by pass  6 Test12= 6.28D-15 2.56D-09 XBig12= 2.51D-14 2.39D-08.
 InvSVY:  IOpt=1 It=  1 EMax= 2.55D-15
 Solved reduced A of dimension   202 with    33 vectors.
 End of Minotr F.D. properties file   721 does not exist.
 End of Minotr F.D. properties file   722 does not exist.
 End of Minotr F.D. properties file   788 does not exist.
 Calling FoFJK, ICntrl=    100127 FMM=F ISym2X=0 I1Cent= 0 IOpClX= 0 NMat=1 NMatS=1 NMatT=0.
 -------------------------------------------------------------------
 Center     Atomic                   Forces (Hartrees/Bohr)
 Number     Number              X              Y              Z
 -------------------------------------------------------------------
      1        6           0.004469984   -0.010672830    0.017072576
      2        6           0.000992018   -0.000010127    0.004681713
      3        6           0.020890270    0.008658891   -0.011762035
      4        8          -0.006170665    0.002432061   -0.000732150
      5        8          -0.002062073   -0.000039217    0.000077028
      6        8          -0.008169564   -0.000924780    0.004593089
      7        1          -0.000101630   -0.000107111    0.000087964
      8        1           0.001732011   -0.000322041    0.002379307
      9        1          -0.002927115   -0.000478547   -0.003321793
     10        1          -0.008503844    0.002050016   -0.015100174
     11        1           0.000384569   -0.000650819    0.004151227
     12        1          -0.000533961    0.000064505   -0.002126753
 -------------------------------------------------------------------
 Cartesian Forces:  Max     0.020890270 RMS     0.006648407
 IRC-IRC-IRC-IRC-IRC-IRC-IRC-IRC-IRC-IRC-IRC-IRC-IRC-IRC-IRC-IRC-IRC-IRC
 Pt  4 Step number   1 out of a maximum of 100
 Modified Bulirsch-Stoer Extrapolation Cycles:
    EPS =    0.000010000000000
      PEZero:  N= 2 I= 1 D=  9.09D-04 Err=  4.71D-05
      PEZero:  N= 3 I= 2 D=  9.09D-04 Err=  3.14D-05
      PEZero:  N= 3 I= 1 D=  1.82D-03 Err=  5.53D-08
 Maximum DWI energy   std dev =  0.000004720 at pt    69
 Maximum DWI gradient std dev =  0.005889786 at pt    23
 CORRECTOR INTEGRATION CONVERGENCE:
   Recorrection delta-x convergence threshold:    0.010000
   Delta-x Convergence Met
 Point Number:   4          Path Number:   1
   CHANGE IN THE REACTION COORDINATE =    0.17452
   NET REACTION COORDINATE UP TO THIS POINT =    0.69800
  # OF POINTS ALONG THE PATH =   4
  # OF STEPS =   1

 Calculating another point on the path.
 IRC-IRC-IRC-IRC-IRC-IRC-IRC-IRC-IRC-IRC-IRC-IRC-IRC-IRC-IRC-IRC-IRC-IRC
                          Input orientation:                          
 ---------------------------------------------------------------------
 Center     Atomic      Atomic             Coordinates (Angstroms)
 Number     Number       Type             X           Y           Z
 ---------------------------------------------------------------------
      1          6           0       -0.574101   -0.096880   -0.827019
      2          6           0        1.612084    1.280525    0.247310
      3          6           0        1.440881   -0.079952    0.255353
      4          8           0       -1.697165    0.480884   -0.381629
      5          8           0       -2.240026   -0.400341    0.643963
      6          8           0        2.078289   -1.092763    0.005297
      7          1           0       -2.883101    0.209695    1.053140
      8          1           0       -0.144780    0.513973   -1.614272
      9          1           0       -0.585065   -1.178729   -0.971283
     10          1           0        0.190887   -0.249340    0.418851
     11          1           0        2.618490    1.689928    0.222312
     12          1           0        0.790270    1.937652    0.505816
 ---------------------------------------------------------------------
                    Distance matrix (angstroms):
                    1          2          3          4          5
     1  C    0.000000
     2  C    2.798362   0.000000
     3  C    2.287349   1.371230   0.000000
     4  O    1.339200   3.462097   3.250787   0.000000
     5  O    2.243030   4.221539   3.715205   1.457085   0.000000
     6  O    2.952914   2.430723   1.222539   4.108543   4.419862
     7  H    2.993404   4.690706   4.406494   1.881104   0.976277
     8  H    1.085001   2.672015   2.522413   1.982524   3.213355
     9  H    1.091481   3.515731   2.610825   2.082972   2.440041
    10  H    1.469912   2.095164   1.271971   2.176864   2.445980
    11  H    3.806102   1.086779   2.126106   4.522323   5.305863
    12  H    2.788777   1.083522   2.134655   3.016134   3.829881
                    6          7          8          9         10
     6  O    0.000000
     7  H    5.235433   0.000000
     8  H    3.185379   3.834850   0.000000
     9  H    2.838054   3.362586   1.863472   0.000000
    10  H    2.108239   3.172135   2.197478   1.843458   0.000000
    11  H    2.842935   5.757505   3.520167   4.462805   3.113300
    12  H    3.330604   4.096224   2.719551   3.712843   2.269307
                   11         12
    11  H    0.000000
    12  H    1.866582   0.000000
 Symmetry turned off by external request.
 Stoichiometry    C3H6O3
 Framework group  C1[X(C3H6O3)]
 Deg. of freedom    30
 Full point group                 C1      NOp   1
 Rotational constants (GHZ):           6.5286554           1.7088084           1.5527102
 Standard basis: 6-31+G(d) (6D, 7F)
   126 basis functions,   216 primitive gaussians,   126 cartesian basis functions
    24 alpha electrons       24 beta electrons
       nuclear repulsion energy       229.0491296771 Hartrees.
 NAtoms=   12 NActive=   12 NUniq=   12 SFac= 1.00D+00 NAtFMM=   60 NAOKFM=F Big=F
 Integral buffers will be    131072 words long.
 Raffenetti 2 integral format.
 Two-electron integral symmetry is turned off.
 One-electron integrals computed using PRISM.
 NBasis=   126 RedAO= T EigKep=  1.08D-04  NBF=   126
 NBsUse=   126 1.00D-06 EigRej= -1.00D+00 NBFU=   126
 Initial guess from the checkpoint file:  "/scratch/bell/zhao922/YARP/paper-example/KHP-network/pp_0/IRC-folder/Gau-61445.chk"
 B after Tr=    -0.000863    0.000042   -0.001237
         Rot=    1.000000   -0.000240    0.000071    0.000043 Ang=  -0.03 deg.
 ExpMin= 4.38D-02 ExpMax= 5.48D+03 ExpMxC= 8.25D+02 IAcc=3 IRadAn=         5 AccDes= 0.00D+00
 Harris functional with IExCor=  402 and IRadAn=       5 diagonalized for initial guess.
 HarFok:  IExCor=  402 AccDes= 0.00D+00 IRadAn=         5 IDoV= 1 UseB2=F ITyADJ=14
 ICtDFT=  3500011 ScaDFX=  1.000000  1.000000  1.000000  1.000000
 FoFCou: FMM=F IPFlag=           0 FMFlag=      100000 FMFlg1=           0
         NFxFlg=           0 DoJE=T BraDBF=F KetDBF=T FulRan=T
         wScrn=  0.000000 ICntrl=       500 IOpCl=  0 I1Cent=   200000004 NGrid=           0
         NMat0=    1 NMatS0=      1 NMatT0=    0 NMatD0=    1 NMtDS0=    0 NMtDT0=    0
 Symmetry not used in FoFCou.
 Keep R1 ints in memory in canonical form, NReq=47237219.
 Requested convergence on RMS density matrix=1.00D-08 within 128 cycles.
 Requested convergence on MAX density matrix=1.00D-06.
 Requested convergence on             energy=1.00D-06.
 No special actions if energy rises.
 SCF Done:  E(RB3LYP) =  -343.380721407     A.U. after   13 cycles
            NFock= 13  Conv=0.32D-08     -V/T= 2.0091
 DoSCS=F DFT=T ScalE2(SS,OS)=  1.000000  1.000000
 Range of M.O.s used for correlation:     1   126
 NBasis=   126 NAE=    24 NBE=    24 NFC=     0 NFV=     0
 NROrb=    126 NOA=    24 NOB=    24 NVA=   102 NVB=   102

 **** Warning!!: The largest alpha MO coefficient is  0.34540262D+02

 Symmetrizing basis deriv contribution to polar:
 IMax=3 JMax=2 DiffMx= 0.00D+00
 G2DrvN: will do    13 centers at a time, making    1 passes.
 Calling FoFCou, ICntrl=  3107 FMM=F I1Cent=   0 AccDes= 0.00D+00.
 End of G2Drv F.D. properties file   721 does not exist.
 End of G2Drv F.D. properties file   722 does not exist.
 End of G2Drv F.D. properties file   788 does not exist.
          IDoAtm=111111111111
          Differentiating once with respect to nuclear coordinates.
 Keep R1 ints in memory in canonical form, NReq=47193248.
          There are    39 degrees of freedom in the 1st order CPHF.  IDoFFX=6 NUNeed=     0.
     33 vectors produced by pass  0 Test12= 6.28D-15 2.56D-09 XBig12= 1.90D-01 1.66D-01.
 AX will form    33 AO Fock derivatives at one time.
     33 vectors produced by pass  1 Test12= 6.28D-15 2.56D-09 XBig12= 2.46D-02 4.11D-02.
     33 vectors produced by pass  2 Test12= 6.28D-15 2.56D-09 XBig12= 6.53D-04 3.58D-03.
     33 vectors produced by pass  3 Test12= 6.28D-15 2.56D-09 XBig12= 8.69D-06 4.00D-04.
     33 vectors produced by pass  4 Test12= 6.28D-15 2.56D-09 XBig12= 1.90D-08 2.25D-05.
     29 vectors produced by pass  5 Test12= 6.28D-15 2.56D-09 XBig12= 2.29D-11 8.71D-07.
      7 vectors produced by pass  6 Test12= 6.28D-15 2.56D-09 XBig12= 2.69D-14 2.79D-08.
 InvSVY:  IOpt=1 It=  1 EMax= 2.00D-15
 Solved reduced A of dimension   201 with    33 vectors.
 End of Minotr F.D. properties file   721 does not exist.
 End of Minotr F.D. properties file   722 does not exist.
 End of Minotr F.D. properties file   788 does not exist.
 Calling FoFJK, ICntrl=    100127 FMM=F ISym2X=0 I1Cent= 0 IOpClX= 0 NMat=1 NMatS=1 NMatT=0.
 -------------------------------------------------------------------
 Center     Atomic                   Forces (Hartrees/Bohr)
 Number     Number              X              Y              Z
 -------------------------------------------------------------------
      1        6           0.007465085   -0.014317042    0.023233338
      2        6           0.000007488   -0.000617453    0.006146000
      3        6           0.030655668    0.010961745   -0.013938620
      4        8          -0.009627546    0.003912468   -0.001173828
      5        8          -0.002406911   -0.000052289    0.000150417
      6        8          -0.011632577   -0.000648580    0.005800423
      7        1          -0.000111113   -0.000161306    0.000121270
      8        1           0.002023668   -0.000570403    0.002894392
      9        1          -0.004039831   -0.000534697   -0.004794708
     10        1          -0.012085988    0.002893189   -0.020694434
     11        1           0.000401466   -0.000971084    0.004858096
     12        1          -0.000649410    0.000105452   -0.002602347
 -------------------------------------------------------------------
 Cartesian Forces:  Max     0.030655668 RMS     0.009196160
 IRC-IRC-IRC-IRC-IRC-IRC-IRC-IRC-IRC-IRC-IRC-IRC-IRC-IRC-IRC-IRC-IRC-IRC
 Pt  5 Step number   1 out of a maximum of 100
 Modified Bulirsch-Stoer Extrapolation Cycles:
    EPS =    0.000010000000000
      PEZero:  N= 2 I= 1 D=  9.09D-04 Err=  3.79D-05
      PEZero:  N= 3 I= 2 D=  9.09D-04 Err=  2.52D-05
      PEZero:  N= 3 I= 1 D=  1.82D-03 Err=  3.89D-08
 Maximum DWI energy   std dev =  0.000003427 at pt    17
 Maximum DWI gradient std dev =  0.003726183 at pt    12
 CORRECTOR INTEGRATION CONVERGENCE:
   Recorrection delta-x convergence threshold:    0.010000
   Delta-x Convergence Met
 Point Number:   5          Path Number:   1
   CHANGE IN THE REACTION COORDINATE =    0.17454
   NET REACTION COORDINATE UP TO THIS POINT =    0.87254
  # OF POINTS ALONG THE PATH =   5
  # OF STEPS =   1

 Calculating another point on the path.
 IRC-IRC-IRC-IRC-IRC-IRC-IRC-IRC-IRC-IRC-IRC-IRC-IRC-IRC-IRC-IRC-IRC-IRC
                          Input orientation:                          
 ---------------------------------------------------------------------
 Center     Atomic      Atomic             Coordinates (Angstroms)
 Number     Number       Type             X           Y           Z
 ---------------------------------------------------------------------
      1          6           0       -0.571998   -0.100618   -0.820937
      2          6           0        1.611938    1.280298    0.248910
      3          6           0        1.449223   -0.077150    0.251917
      4          8           0       -1.699187    0.481713   -0.381881
      5          8           0       -2.240469   -0.400352    0.644002
      6          8           0        2.075954   -1.092852    0.006405
      7          1           0       -2.883441    0.209176    1.053545
      8          1           0       -0.138908    0.512029   -1.605736
      9          1           0       -0.597833   -1.180393   -0.986731
     10          1           0        0.152536   -0.240178    0.354171
     11          1           0        2.619627    1.686807    0.236471
     12          1           0        0.788290    1.938015    0.498070
 ---------------------------------------------------------------------
                    Distance matrix (angstroms):
                    1          2          3          4          5
     1  C    0.000000
     2  C    2.796619   0.000000
     3  C    2.288428   1.367169   0.000000
     4  O    1.342547   3.463984   3.259833   0.000000
     5  O    2.240464   4.221578   3.724515   1.457210   0.000000
     6  O    2.946298   2.430219   1.218491   4.108736   4.417872
     7  H    2.992060   4.690753   4.415492   1.880740   0.976045
     8  H    1.085732   2.663722   2.513995   1.983233   3.210969
     9  H    1.092735   3.530566   2.634735   2.083607   2.442541
    10  H    1.387554   2.110161   1.310889   2.119382   2.415809
    11  H    3.807816   1.086665   2.116985   4.526230   5.304982
    12  H    2.783197   1.083082   2.135020   3.013747   3.829182
                    6          7          8          9         10
     6  O    0.000000
     7  H    5.233295   0.000000
     8  H    3.174942   3.833531   0.000000
     9  H    2.853615   3.364169   1.859589   0.000000
    10  H    2.132494   3.147730   2.119433   1.801409   0.000000
    11  H    2.841657   5.756279   3.518998   4.479855   3.132676
    12  H    3.329559   4.096223   2.705390   3.721617   2.273635
                   11         12
    11  H    0.000000
    12  H    1.866904   0.000000
 Symmetry turned off by external request.
 Stoichiometry    C3H6O3
 Framework group  C1[X(C3H6O3)]
 Deg. of freedom    30
 Full point group                 C1      NOp   1
 Rotational constants (GHZ):           6.5431135           1.7083945           1.5515567
 Standard basis: 6-31+G(d) (6D, 7F)
   126 basis functions,   216 primitive gaussians,   126 cartesian basis functions
    24 alpha electrons       24 beta electrons
       nuclear repulsion energy       229.2101107025 Hartrees.
 NAtoms=   12 NActive=   12 NUniq=   12 SFac= 1.00D+00 NAtFMM=   60 NAOKFM=F Big=F
 Integral buffers will be    131072 words long.
 Raffenetti 2 integral format.
 Two-electron integral symmetry is turned off.
 One-electron integrals computed using PRISM.
 NBasis=   126 RedAO= T EigKep=  1.06D-04  NBF=   126
 NBsUse=   126 1.00D-06 EigRej= -1.00D+00 NBFU=   126
 Initial guess from the checkpoint file:  "/scratch/bell/zhao922/YARP/paper-example/KHP-network/pp_0/IRC-folder/Gau-61445.chk"
 B after Tr=    -0.000913    0.000041   -0.001291
         Rot=    1.000000   -0.000229    0.000061    0.000043 Ang=  -0.03 deg.
 ExpMin= 4.38D-02 ExpMax= 5.48D+03 ExpMxC= 8.25D+02 IAcc=3 IRadAn=         5 AccDes= 0.00D+00
 Harris functional with IExCor=  402 and IRadAn=       5 diagonalized for initial guess.
 HarFok:  IExCor=  402 AccDes= 0.00D+00 IRadAn=         5 IDoV= 1 UseB2=F ITyADJ=14
 ICtDFT=  3500011 ScaDFX=  1.000000  1.000000  1.000000  1.000000
 FoFCou: FMM=F IPFlag=           0 FMFlag=      100000 FMFlg1=           0
         NFxFlg=           0 DoJE=T BraDBF=F KetDBF=T FulRan=T
         wScrn=  0.000000 ICntrl=       500 IOpCl=  0 I1Cent=   200000004 NGrid=           0
         NMat0=    1 NMatS0=      1 NMatT0=    0 NMatD0=    1 NMtDS0=    0 NMtDT0=    0
 Symmetry not used in FoFCou.
 Keep R1 ints in memory in canonical form, NReq=47237219.
 Requested convergence on RMS density matrix=1.00D-08 within 128 cycles.
 Requested convergence on MAX density matrix=1.00D-06.
 Requested convergence on             energy=1.00D-06.
 No special actions if energy rises.
 SCF Done:  E(RB3LYP) =  -343.386446540     A.U. after   13 cycles
            NFock= 13  Conv=0.33D-08     -V/T= 2.0091
 DoSCS=F DFT=T ScalE2(SS,OS)=  1.000000  1.000000
 Range of M.O.s used for correlation:     1   126
 NBasis=   126 NAE=    24 NBE=    24 NFC=     0 NFV=     0
 NROrb=    126 NOA=    24 NOB=    24 NVA=   102 NVB=   102

 **** Warning!!: The largest alpha MO coefficient is  0.34314447D+02

 Symmetrizing basis deriv contribution to polar:
 IMax=3 JMax=2 DiffMx= 0.00D+00
 G2DrvN: will do    13 centers at a time, making    1 passes.
 Calling FoFCou, ICntrl=  3107 FMM=F I1Cent=   0 AccDes= 0.00D+00.
 End of G2Drv F.D. properties file   721 does not exist.
 End of G2Drv F.D. properties file   722 does not exist.
 End of G2Drv F.D. properties file   788 does not exist.
          IDoAtm=111111111111
          Differentiating once with respect to nuclear coordinates.
 Keep R1 ints in memory in canonical form, NReq=47193248.
          There are    39 degrees of freedom in the 1st order CPHF.  IDoFFX=6 NUNeed=     0.
     33 vectors produced by pass  0 Test12= 6.28D-15 2.56D-09 XBig12= 1.79D-01 1.46D-01.
 AX will form    33 AO Fock derivatives at one time.
     33 vectors produced by pass  1 Test12= 6.28D-15 2.56D-09 XBig12= 2.34D-02 4.14D-02.
     33 vectors produced by pass  2 Test12= 6.28D-15 2.56D-09 XBig12= 6.34D-04 3.45D-03.
     33 vectors produced by pass  3 Test12= 6.28D-15 2.56D-09 XBig12= 8.01D-06 3.85D-04.
     33 vectors produced by pass  4 Test12= 6.28D-15 2.56D-09 XBig12= 1.83D-08 2.09D-05.
     28 vectors produced by pass  5 Test12= 6.28D-15 2.56D-09 XBig12= 2.21D-11 7.32D-07.
      6 vectors produced by pass  6 Test12= 6.28D-15 2.56D-09 XBig12= 2.71D-14 2.70D-08.
 InvSVY:  IOpt=1 It=  1 EMax= 1.78D-15
 Solved reduced A of dimension   199 with    33 vectors.
 End of Minotr F.D. properties file   721 does not exist.
 End of Minotr F.D. properties file   722 does not exist.
 End of Minotr F.D. properties file   788 does not exist.
 Calling FoFJK, ICntrl=    100127 FMM=F ISym2X=0 I1Cent= 0 IOpClX= 0 NMat=1 NMatS=1 NMatT=0.
 -------------------------------------------------------------------
 Center     Atomic                   Forces (Hartrees/Bohr)
 Number     Number              X              Y              Z
 -------------------------------------------------------------------
      1        6           0.010356438   -0.017802644    0.027965392
      2        6          -0.001356103   -0.001219755    0.007606218
      3        6           0.041193720    0.012795782   -0.015386504
      4        8          -0.013744028    0.005698972   -0.001716003
      5        8          -0.002674199   -0.000064809    0.000358852
      6        8          -0.015150690   -0.000279474    0.006877082
      7        1          -0.000122227   -0.000228400    0.000163917
      8        1           0.002100577   -0.000871394    0.003184149
      9        1          -0.005155660   -0.000472414   -0.006344703
     10        1          -0.015071263    0.003597564   -0.025039324
     11        1           0.000369906   -0.001292138    0.005292867
     12        1          -0.000746470    0.000138710   -0.002961942
 -------------------------------------------------------------------
 Cartesian Forces:  Max     0.041193720 RMS     0.011621391
 IRC-IRC-IRC-IRC-IRC-IRC-IRC-IRC-IRC-IRC-IRC-IRC-IRC-IRC-IRC-IRC-IRC-IRC
 Pt  6 Step number   1 out of a maximum of 100
 Modified Bulirsch-Stoer Extrapolation Cycles:
    EPS =    0.000010000000000
      PEZero:  N= 2 I= 1 D=  9.09D-04 Err=  3.53D-05
      PEZero:  N= 3 I= 2 D=  9.09D-04 Err=  2.35D-05
      PEZero:  N= 3 I= 1 D=  1.82D-03 Err=  2.85D-08
 Maximum DWI energy   std dev =  0.000013058 at pt    27
 Maximum DWI gradient std dev =  0.004531598 at pt    18
 CORRECTOR INTEGRATION CONVERGENCE:
   Recorrection delta-x convergence threshold:    0.010000
   Delta-x Convergence Met
 Point Number:   6          Path Number:   1
   CHANGE IN THE REACTION COORDINATE =    0.17455
   NET REACTION COORDINATE UP TO THIS POINT =    1.04709
  # OF POINTS ALONG THE PATH =   6
  # OF STEPS =   1

 Calculating another point on the path.
 IRC-IRC-IRC-IRC-IRC-IRC-IRC-IRC-IRC-IRC-IRC-IRC-IRC-IRC-IRC-IRC-IRC-IRC
                          Input orientation:                          
 ---------------------------------------------------------------------
 Center     Atomic      Atomic             Coordinates (Angstroms)
 Number     Number       Type             X           Y           Z
 ---------------------------------------------------------------------
      1          6           0       -0.569705   -0.104473   -0.815035
      2          6           0        1.611521    1.280004    0.250567
      3          6           0        1.458483   -0.074433    0.248757
      4          8           0       -1.701568    0.482706   -0.382186
      5          8           0       -2.240886   -0.400362    0.644079
      6          8           0        2.073446   -1.092885    0.007503
      7          1           0       -2.883769    0.208555    1.054009
      8          1           0       -0.133968    0.509641   -1.598076
      9          1           0       -0.611322   -1.181503   -1.003574
     10          1           0        0.114111   -0.231044    0.291166
     11          1           0        2.620463    1.683427    0.249360
     12          1           0        0.786373    1.938375    0.490717
 ---------------------------------------------------------------------
                    Distance matrix (angstroms):
                    1          2          3          4          5
     1  C    0.000000
     2  C    2.794643   0.000000
     3  C    2.290437   1.363056   0.000000
     4  O    1.346570   3.465923   3.270232   0.000000
     5  O    2.238170   4.221317   3.734681   1.457358   0.000000
     6  O    2.939350   2.429621   1.213931   4.109146   4.415686
     7  H    2.991020   4.690538   4.425343   1.880269   0.975767
     8  H    1.086350   2.656628   2.507555   1.984057   3.208499
     9  H    1.094200   3.545831   2.660456   2.084311   2.445489
    10  H    1.306639   2.127710   1.354128   2.063863   2.387305
    11  H    3.808765   1.086607   2.107194   4.529959   5.303837
    12  H    2.777978   1.082587   2.135807   3.011774   3.828512
                    6          7          8          9         10
     6  O    0.000000
     7  H    5.230956   0.000000
     8  H    3.165225   3.832181   0.000000
     9  H    2.870211   3.365995   1.855065   0.000000
    10  H    2.159220   3.124493   2.044356   1.762378   0.000000
    11  H    2.840005   5.754934   3.518193   4.496899   3.154163
    12  H    3.328452   4.096280   2.692835   3.730964   2.279942
                   11         12
    11  H    0.000000
    12  H    1.867388   0.000000
 Symmetry turned off by external request.
 Stoichiometry    C3H6O3
 Framework group  C1[X(C3H6O3)]
 Deg. of freedom    30
 Full point group                 C1      NOp   1
 Rotational constants (GHZ):           6.5558843           1.7076668           1.5502708
 Standard basis: 6-31+G(d) (6D, 7F)
   126 basis functions,   216 primitive gaussians,   126 cartesian basis functions
    24 alpha electrons       24 beta electrons
       nuclear repulsion energy       229.3683094096 Hartrees.
 NAtoms=   12 NActive=   12 NUniq=   12 SFac= 1.00D+00 NAtFMM=   60 NAOKFM=F Big=F
 Integral buffers will be    131072 words long.
 Raffenetti 2 integral format.
 Two-electron integral symmetry is turned off.
 One-electron integrals computed using PRISM.
 NBasis=   126 RedAO= T EigKep=  1.03D-04  NBF=   126
 NBsUse=   126 1.00D-06 EigRej= -1.00D+00 NBFU=   126
 Initial guess from the checkpoint file:  "/scratch/bell/zhao922/YARP/paper-example/KHP-network/pp_0/IRC-folder/Gau-61445.chk"
 B after Tr=    -0.000952    0.000035   -0.001318
         Rot=    1.000000   -0.000228    0.000055    0.000044 Ang=  -0.03 deg.
 ExpMin= 4.38D-02 ExpMax= 5.48D+03 ExpMxC= 8.25D+02 IAcc=3 IRadAn=         5 AccDes= 0.00D+00
 Harris functional with IExCor=  402 and IRadAn=       5 diagonalized for initial guess.
 HarFok:  IExCor=  402 AccDes= 0.00D+00 IRadAn=         5 IDoV= 1 UseB2=F ITyADJ=14
 ICtDFT=  3500011 ScaDFX=  1.000000  1.000000  1.000000  1.000000
 FoFCou: FMM=F IPFlag=           0 FMFlag=      100000 FMFlg1=           0
         NFxFlg=           0 DoJE=T BraDBF=F KetDBF=T FulRan=T
         wScrn=  0.000000 ICntrl=       500 IOpCl=  0 I1Cent=   200000004 NGrid=           0
         NMat0=    1 NMatS0=      1 NMatT0=    0 NMatD0=    1 NMtDS0=    0 NMtDT0=    0
 Symmetry not used in FoFCou.
 Keep R1 ints in memory in canonical form, NReq=47237219.
 Requested convergence on RMS density matrix=1.00D-08 within 128 cycles.
 Requested convergence on MAX density matrix=1.00D-06.
 Requested convergence on             energy=1.00D-06.
 No special actions if energy rises.
 SCF Done:  E(RB3LYP) =  -343.393064327     A.U. after   13 cycles
            NFock= 13  Conv=0.35D-08     -V/T= 2.0090
 DoSCS=F DFT=T ScalE2(SS,OS)=  1.000000  1.000000
 Range of M.O.s used for correlation:     1   126
 NBasis=   126 NAE=    24 NBE=    24 NFC=     0 NFV=     0
 NROrb=    126 NOA=    24 NOB=    24 NVA=   102 NVB=   102

 **** Warning!!: The largest alpha MO coefficient is  0.33958407D+02

[...]
  10                   -0.47565   1.46955   1.88698   1.48133  -0.74286
  11                   -0.47355   1.45801   1.90754   1.48964  -0.73282
  12                   -0.47121   1.44613   1.92876   1.49802  -0.72197
  13                   -0.46863   1.43388   1.95067   1.50649  -0.71028
  14                   -0.46580   1.42123   1.97326   1.51503  -0.69769
  15                   -0.46272   1.40815   1.99653   1.52364  -0.68418
  16                   -0.45937   1.39460   2.02047   1.53230  -0.66968
  17                   -0.45574   1.38056   2.04506   1.54101  -0.65414
  18                   -0.45183   1.36600   2.07029   1.54976  -0.63750
  19                   -0.44763   1.35087   2.09613   1.55854  -0.61971
  20                   -0.44313   1.33517   2.12254   1.56735  -0.60068
  21                   -0.43833   1.31884   2.14947   1.57618  -0.58034
  22                   -0.43320   1.30186   2.17687   1.58501  -0.55861
  23                   -0.42774   1.28420   2.20467   1.59384  -0.53542
  24                   -0.42195   1.26583   2.23277   1.60264  -0.51069
  25                   -0.41581   1.24670   2.26107   1.61138  -0.48435
  26                   -0.40933   1.22678   2.28945   1.62003  -0.45634
  27                   -0.40251   1.20600   2.31776   1.62854  -0.42664
  28                   -0.39537   1.18432   2.34583   1.63687  -0.39521
  29                   -0.38793   1.16163   2.37347   1.64494  -0.36207
  30                   -0.38023   1.13784   2.40050   1.65271  -0.32727
  31                   -0.37230   1.11282   2.42670   1.66009  -0.29087
  32                   -0.36419   1.08641   2.45186   1.66702  -0.25300
  33                   -0.35595   1.05839   2.47577   1.67344  -0.21382
  34                   -0.34762   1.02850   2.49822   1.67928  -0.17355
  35                   -0.33925   0.99639   2.51901   1.68448  -0.13246
  36                   -0.33092   0.96165   2.53794   1.68900  -0.09090
  37                   -0.32269   0.92378   2.55484   1.69276  -0.04933
  38                   -0.31461   0.88226   2.56957   1.69571  -0.00835
  39                   -0.30671   0.83661   2.58204   1.69778   0.03132
  40                   -0.29895   0.78658   2.59225   1.69895   0.06889
  41                   -0.29129   0.73171   2.60017   1.69918   0.10314
  42                   -0.28338   0.67399   2.60657   1.69861   0.13493
  43                   -0.27532   0.61270   2.61119   1.69724   0.16245
  44                   -0.26697   0.54907   2.61449   1.69523   0.18590
  45                   -0.25830   0.48416   2.61681   1.69274   0.20559
  46                   -0.24933   0.41895   2.61844   1.68990   0.22216
  47                   -0.24018   0.35432   2.61960   1.68678   0.23643
  48                   -0.23106   0.29144   2.62045   1.68339   0.24943
  49                   -0.22242   0.23279   2.62106   1.67965   0.26245
  50                   -0.21567   0.18473   2.62137   1.67563   0.27714
  51                   -0.21379   0.15673   2.62117   1.67247   0.29426
  52                   -0.21809   0.14460   2.62025   1.67217   0.31237
  53                   -0.22708   0.13791   2.61858   1.67555   0.33034
  54                   -0.23913   0.13259   2.61617   1.68247   0.34780
  55                   -0.25311   0.12759   2.61306   1.69243   0.36458
  56                   -0.26829   0.12255   2.60930   1.70485   0.38064
  57                   -0.28426   0.11730   2.60496   1.71913   0.39598
  58                   -0.30081   0.11174   2.60014   1.73478   0.41062
  59                   -0.31787   0.10577   2.59493   1.75134   0.42459
  60                   -0.33541   0.09932   2.58942   1.76846   0.43792
  61                   -0.35344   0.09231   2.58372   1.78581   0.45064
  62                   -0.37198   0.08466   2.57795   1.80313   0.46278
  63                   -0.39102   0.07630   2.57222   1.82018   0.47435
  64                   -0.41057   0.06716   2.56667   1.83677   0.48533
  65                   -0.43060   0.05718   2.56143   1.85270   0.49573
  66                   -0.45107   0.04634   2.55663   1.86783   0.50550
  67                   -0.47192   0.03460   2.55239   1.88204   0.51461
  68                   -0.49310   0.02197   2.54881   1.89526   0.52302
  69                   -0.51450   0.00848   2.54599   1.90742   0.53068
  70                   -0.53604  -0.00582   2.54395   1.91853   0.53755
  71                   -0.55764  -0.02088   2.54273   1.92860   0.54358
  72                   -0.57920  -0.03664   2.54230   1.93769   0.54876
  73                   -0.60065  -0.05301   2.54262   1.94588   0.55306
  74                   -0.62190  -0.06992   2.54363   1.95325   0.55647
  75                   -0.64290  -0.08731   2.54526   1.95989   0.55900
  76                   -0.66358  -0.10511   2.54741   1.96591   0.56065
  77                   -0.68389  -0.12326   2.54999   1.97140   0.56142
  78                   -0.70379  -0.14171   2.55291   1.97645   0.56133
  79                   -0.72325  -0.16041   2.55607   1.98115   0.56039
  80                   -0.74225  -0.17933   2.55938   1.98557   0.55862
  81                   -0.76077  -0.19844   2.56276   1.98978   0.55602
                          X12       Y12       Z12
   1                    0.76563   1.80324   0.70017
   2                    0.77629   1.80976   0.70567
   3                    0.78631   1.81608   0.71098
   4                    0.79577   1.82220   0.71609
   5                    0.80470   1.82815   0.72098
   6                    0.81315   1.83394   0.72564
   7                    0.82115   1.83958   0.73006
   8                    0.82871   1.84508   0.73421
   9                    0.83585   1.85045   0.73809
  10                    0.84258   1.85568   0.74168
  11                    0.84891   1.86079   0.74497
  12                    0.85482   1.86578   0.74794
  13                    0.86032   1.87064   0.75056
  14                    0.86538   1.87537   0.75282
  15                    0.86999   1.87998   0.75468
  16                    0.87413   1.88444   0.75613
  17                    0.87777   1.88877   0.75711
  18                    0.88087   1.89295   0.75760
  19                    0.88343   1.89698   0.75755
  20                    0.88541   1.90086   0.75693
  21                    0.88679   1.90458   0.75569
  22                    0.88755   1.90811   0.75380
  23                    0.88766   1.91146   0.75120
  24                    0.88711   1.91460   0.74785
  25                    0.88589   1.91753   0.74372
  26                    0.88400   1.92023   0.73876
  27                    0.88146   1.92269   0.73294
  28                    0.87828   1.92492   0.72621
  29                    0.87450   1.92691   0.71854
  30                    0.87016   1.92867   0.70991
  31                    0.86530   1.93021   0.70030
  32                    0.86000   1.93154   0.68968
  33                    0.85431   1.93267   0.67807
  34                    0.84832   1.93362   0.66549
  35                    0.84212   1.93441   0.65199
  36                    0.83580   1.93503   0.63766
  37                    0.82947   1.93552   0.62266
  38                    0.82327   1.93587   0.60722
  39                    0.81732   1.93611   0.59167
  40                    0.81177   1.93629   0.57636
  41                    0.80671   1.93639   0.56183
  42                    0.80230   1.93659   0.54799
  43                    0.79848   1.93678   0.53545
  44                    0.79526   1.93702   0.52429
  45                    0.79258   1.93732   0.51450
  46                    0.79031   1.93765   0.50586
  47                    0.78831   1.93802   0.49807
  48                    0.78637   1.93837   0.49067
  49                    0.78420   1.93869   0.48299
  50                    0.78132   1.93880   0.47415
  51                    0.77719   1.93832   0.46380
  52                    0.77189   1.93680   0.45295
  53                    0.76571   1.93414   0.44235
  54                    0.75890   1.93030   0.43222
  55                    0.75168   1.92524   0.42263
  56                    0.74422   1.91894   0.41358
  57                    0.73667   1.91141   0.40502
  58                    0.72919   1.90268   0.39694
  59                    0.72189   1.89283   0.38929
  60                    0.71491   1.88199   0.38207
  61                    0.70837   1.87031   0.37529
  62                    0.70239   1.85795   0.36896
  63                    0.69706   1.84511   0.36313
  64                    0.69246   1.83199   0.35786
  65                    0.68867   1.81881   0.35321
  66                    0.68572   1.80577   0.34924
  67                    0.68363   1.79308   0.34603
  68                    0.68238   1.78093   0.34363
  69                    0.68196   1.76947   0.34207
  70                    0.68228   1.75882   0.34140
  71                    0.68328   1.74904   0.34163
  72                    0.68488   1.74017   0.34277
  73                    0.68697   1.73219   0.34479
  74                    0.68946   1.72508   0.34769
  75                    0.69227   1.71877   0.35145
  76                    0.69531   1.71317   0.35603
  77                    0.69851   1.70819   0.36141
  78                    0.70179   1.70374   0.36757
  79                    0.70511   1.69973   0.37448
  80                    0.70841   1.69607   0.38211
  81                    0.71165   1.69267   0.39042
 --------------------------------------------------------------------------
 
 Total number of points:                   80
 Total number of gradient calculations:    81
 Total number of Hessian calculations:     81
 IRC-IRC-IRC-IRC-IRC-IRC-IRC-IRC-IRC-IRC-IRC-IRC-IRC-IRC-IRC-IRC-IRC-IRC
                          Input orientation:                          
 ---------------------------------------------------------------------
 Center     Atomic      Atomic             Coordinates (Angstroms)
 Number     Number       Type             X           Y           Z
 ---------------------------------------------------------------------
      1          6           0       -0.369269    0.248315   -0.804732
      2          6           0        1.078925    1.033460   -0.008391
      3          6           0        1.511698   -0.242402    0.581107
      4          8           0       -1.686088    0.536532   -0.417990
      5          8           0       -2.140141   -0.396417    0.623422
      6          8           0        2.143863   -1.089711   -0.026634
      7          1           0       -2.779232    0.186998    1.072402
      8          1           0       -0.314623    0.606137   -1.835808
      9          1           0       -0.200145   -0.829121   -0.773435
     10          1           0        1.051363   -0.482708    1.563894
     11          1           0        1.728071    1.410596   -0.802327
     12          1           0        0.765642    1.803247    0.700193
 ---------------------------------------------------------------------
                    Distance matrix (angstroms):
                    1          2          3          4          5
     1  C    0.000000
     2  C    1.829720   0.000000
     3  C    2.387339   1.470586   0.000000
     4  O    1.402373   2.839015   3.439588   0.000000
     5  O    2.364592   3.578564   3.655330   1.470068   0.000000
     6  O    2.951539   2.375348   1.219391   4.179276   4.388156
     7  H    3.055375   4.095117   4.340257   1.881066   0.974882
     8  H    1.092767   2.337527   3.145941   1.973821   3.222645
     9  H    1.091078   2.385481   2.260404   2.049238   2.429408
    10  H    2.857093   2.184400   1.111541   3.529922   3.328307
    11  H    2.397860   1.092683   2.166358   3.545162   4.501235
    12  H    2.443488   1.092158   2.180702   2.977562   3.645269
                    6          7          8          9         10
     6  O    0.000000
     7  H    5.203338   0.000000
     8  H    3.491871   3.835057   0.000000
     9  H    2.473861   3.330361   1.789331   0.000000
    10  H    2.022816   3.919634   3.822234   2.673832   0.000000
    11  H    2.650682   5.032651   2.426486   2.955534   3.105081
    12  H    3.285875   3.913685   3.005219   3.167599   2.460326
                   11         12
    11  H    0.000000
    12  H    1.827022   0.000000
 Symmetry turned off by external request.
 Stoichiometry    C3H6O3
 Framework group  C1[X(C3H6O3)]
 Deg. of freedom    30
 Full point group                 C1      NOp   1
 Rotational constants (GHZ):           6.9386891           1.8417023           1.6746208

 **********************************************************************

            Population analysis using the SCF Density.

 **********************************************************************

 Alpha  occ. eigenvalues --  -19.24902 -19.23944 -19.15207 -10.28338 -10.28337
 Alpha  occ. eigenvalues --  -10.22370  -1.14556  -1.04826  -0.95452  -0.77197
 Alpha  occ. eigenvalues --   -0.66805  -0.58646  -0.56142  -0.50937  -0.48219
 Alpha  occ. eigenvalues --   -0.47785  -0.44505  -0.42649  -0.40739  -0.40408
 Alpha  occ. eigenvalues --   -0.35949  -0.34472  -0.27734  -0.25808
 Alpha virt. eigenvalues --   -0.03749  -0.03226   0.00436   0.02051   0.02166
 Alpha virt. eigenvalues --    0.03625   0.05297   0.06177   0.07420   0.07963
 Alpha virt. eigenvalues --    0.08518   0.09005   0.11873   0.13191   0.14165
 Alpha virt. eigenvalues --    0.14812   0.16807   0.16959   0.19843   0.20888
 Alpha virt. eigenvalues --    0.21290   0.23668   0.24796   0.25086   0.25892
 Alpha virt. eigenvalues --    0.26422   0.27796   0.28305   0.29428   0.31463
 Alpha virt. eigenvalues --    0.32291   0.33681   0.35328   0.36574   0.37498
 Alpha virt. eigenvalues --    0.44383   0.62667   0.63972   0.64851   0.70638
 Alpha virt. eigenvalues --    0.73670   0.74107   0.79005   0.82104   0.82885
 Alpha virt. eigenvalues --    0.92277   0.95051   0.97346   1.00973   1.03929
 Alpha virt. eigenvalues --    1.04996   1.08018   1.09868   1.11813   1.12503
 Alpha virt. eigenvalues --    1.18757   1.23231   1.24875   1.26683   1.28421
 Alpha virt. eigenvalues --    1.29284   1.32747   1.41020   1.42005   1.48329
 Alpha virt. eigenvalues --    1.49493   1.52547   1.56746   1.61628   1.64773
 Alpha virt. eigenvalues --    1.70911   1.72577   1.75968   1.80551   1.82622
 Alpha virt. eigenvalues --    1.86032   1.88088   1.92449   1.99838   2.08661
 Alpha virt. eigenvalues --    2.12905   2.17818   2.19693   2.21896   2.28032
 Alpha virt. eigenvalues --    2.33282   2.36194   2.46984   2.53519   2.56704
 Alpha virt. eigenvalues --    2.60399   2.64018   2.84232   2.89440   3.06601
 Alpha virt. eigenvalues --    3.09657   3.94388   4.17718   4.22015   4.25810
 Alpha virt. eigenvalues --    4.32792   4.46945
          Condensed to atoms (all electrons):
               1          2          3          4          5          6
     1  C    5.363675   0.012311   0.010633   0.157499  -0.020133  -0.055644
     2  C    0.012311   5.998501   0.077752  -0.042646   0.032490  -0.117248
     3  C    0.010633   0.077752   4.978417   0.002653  -0.016854   0.475608
     4  O    0.157499  -0.042646   0.002653   8.020428   0.081337   0.001109
     5  O   -0.020133   0.032490  -0.016854   0.081337   8.223493   0.000478
     6  O   -0.055644  -0.117248   0.475608   0.001109   0.000478   8.130422
     7  H    0.009390   0.000035  -0.002461  -0.031058   0.201491   0.000023
     8  H    0.392867  -0.046123   0.004084  -0.048986   0.006924   0.001942
     9  H    0.394684  -0.081799   0.023644  -0.027670  -0.008287  -0.001189
    10  H    0.010497  -0.123848   0.383338  -0.001350   0.000711  -0.063209
    11  H   -0.016051   0.376815  -0.036307   0.001248  -0.000196  -0.001050
    12  H   -0.031798   0.366690  -0.023480   0.000232   0.000145   0.005964
               7          8          9         10         11         12
     1  C    0.009390   0.392867   0.394684   0.010497  -0.016051  -0.031798
     2  C    0.000035  -0.046123  -0.081799  -0.123848   0.376815   0.366690
     3  C   -0.002461   0.004084   0.023644   0.383338  -0.036307  -0.023480
     4  O   -0.031058  -0.048986  -0.027670  -0.001350   0.001248   0.000232
     5  O    0.201491   0.006924  -0.008287   0.000711  -0.000196   0.000145
     6  O    0.000023   0.001942  -0.001189  -0.063209  -0.001050   0.005964
     7  H    0.347464  -0.000305   0.000042   0.000005   0.000003  -0.000025
     8  H   -0.000305   0.495016  -0.023191  -0.000145  -0.002992   0.000873
     9  H    0.000042  -0.023191   0.481122   0.000667   0.001976   0.001363
    10  H    0.000005  -0.000145   0.000667   0.619726   0.003573   0.002788
    11  H    0.000003  -0.002992   0.001976   0.003573   0.467190  -0.025578
    12  H   -0.000025   0.000873   0.001363   0.002788  -0.025578   0.486015
 Mulliken charges:
               1
     1  C   -0.227931
     2  C   -0.452931
     3  C    0.122972
     4  O   -0.112797
     5  O   -0.501599
     6  O   -0.377206
     7  H    0.475394
     8  H    0.220036
     9  H    0.238638
    10  H    0.167244
    11  H    0.231370
    12  H    0.216810
 Sum of Mulliken charges =  -0.00000
 Mulliken charges with hydrogens summed into heavy atoms:
               1
     1  C    0.230743
     2  C   -0.004751
     3  C    0.290216
     4  O   -0.112797
     5  O   -0.026205
     6  O   -0.377206
 APT charges:
               1
     1  C   -0.701986
     2  C   -0.865220
     3  C   -0.253285
     4  O   -0.090909
     5  O   -0.809745
     6  O   -0.242786
     7  H    0.801027
     8  H    0.519874
     9  H    0.345901
    10  H    0.322424
    11  H    0.539905
    12  H    0.434799
 Sum of APT charges =  -0.00000
 APT charges with hydrogens summed into heavy atoms:
               1
     1  C    0.163790
     2  C    0.109484
     3  C    0.069139
     4  O   -0.090909
     5  O   -0.008718
     6  O   -0.242786
 Electronic spatial extent (au):  <R**2>=            711.0529
 Charge=             -0.0000 electrons
 Dipole moment (field-independent basis, Debye):
    X=             -2.0114    Y=              2.9591    Z=              0.9416  Tot=              3.6998
 Quadrupole moment (field-independent basis, Debye-Ang):
   XX=            -39.6288   YY=            -38.6361   ZZ=            -32.3448
   XY=              3.8012   XZ=             -2.4411   YZ=              0.3916
 Traceless Quadrupole moment (field-independent basis, Debye-Ang):
   XX=             -2.7589   YY=             -1.7662   ZZ=              4.5251
   XY=              3.8012   XZ=             -2.4411   YZ=              0.3916
 Octapole moment (field-independent basis, Debye-Ang**2):
  XXX=            -41.6016  YYY=             -0.7603  ZZZ=              0.9941  XYY=             -6.2972
  XXY=             15.4464  XXZ=             16.1770  XZZ=             -6.7432  YZZ=              0.3526
  YYZ=              0.0593  XYZ=             -3.9644
 Hexadecapole moment (field-independent basis, Debye-Ang**3):
 XXXX=           -568.6676 YYYY=           -161.3423 ZZZZ=           -111.4883 XXXY=             34.5822
 XXXZ=            -43.1221 YYYX=             33.7083 YYYZ=             17.0294 ZZZX=             -9.1449
 ZZZY=             11.5199 XXYY=           -142.3100 XXZZ=           -103.3212 YYZZ=            -43.6845
 XXYZ=              8.7316 YYXZ=             -2.9754 ZZXY=              6.8202
 N-N= 2.322962071121D+02 E-N=-1.268987842738D+03  KE= 3.401943084570D+02
  Exact polarizability:   0.000   0.000   0.000   0.000   0.000   0.000
 Approx polarizability:  84.928  -5.014  71.015  -5.705  -1.768  69.849

 This type of calculation cannot be archived.


 MICRO CREDO - NEVER TRUST A COMPUTER BIGGER
               BIGGER THAN YOU CAN LIFT.
 Job cpu time:       0 days  6 hours 27 minutes 59.2 seconds.
 Elapsed time:       0 days  0 hours 28 minutes 27.9 seconds.
 File lengths (MBytes):  RWF=     28 Int=      0 D2E=      0 Chk=      4 Scr=      1
 Normal termination of Gaussian 16 at Wed Dec 23 23:55:09 2020.
