 Entering Gaussian System, Link 0=g16
 Initial command:
 /apps/cent7/gaussian/g16-B.01/g16-haswell/g16/l1.exe "/scratch/bell/zhao922/YARP/paper-example/KHP-network/pp_0/IRC-folder/Gau-51815.inp" -scrdir="/scratch/bell/zhao922/YARP/paper-example/KHP-network/pp_0/IRC-folder/"
 Entering Link 1 = /apps/cent7/gaussian/g16-B.01/g16-haswell/g16/l1.exe PID=     51818.
  
 Copyright (c) 1988-2017, Gaussian, Inc.  All Rights Reserved.
  
 This is part of the Gaussian(R) 16 program.  It is based on
 the Gaussian(R) 09 system (copyright 2009, Gaussian, Inc.),
 the Gaussian(R) 03 system (copyright 2003, Gaussian, Inc.),
 the Gaussian(R) 98 system (copyright 1998, Gaussian, Inc.),
 the Gaussian(R) 94 system (copyright 1995, Gaussian, Inc.),
 the Gaussian 92(TM) system (copyright 1992, Gaussian, Inc.),
 the Gaussian 90(TM) system (copyright 1990, Gaussian, Inc.),
 the Gaussian 88(TM) system (copyright 1988, Gaussian, Inc.),
 the Gaussian 86(TM) system (copyright 1986, Carnegie Mellon
 University), and the Gaussian 82(TM) system (copyright 1983,
 Carnegie Mellon University). Gaussian is a federally registered
 trademark of Gaussian, Inc.
  
 This software contains proprietary and confidential information,
 including trade secrets, belonging to Gaussian, Inc.
  
 This software is provided under written license and may be
 used, copied, transmitted, or stored only in accord with that
 written license.
  
 The following legend is applicable only to US Government
 contracts under FAR:
  
                    RESTRICTED RIGHTS LEGEND
  
 Use, reproduction and disclosure by the US Government is
 subject to restrictions as set forth in subparagraphs (a)
 and (c) of the Commercial Computer Software - Restricted
 Rights clause in FAR 52.227-19.
  
 Gaussian, Inc.
 340 Quinnipiac St., Bldg. 40, Wallingford CT 06492
  
  
 ---------------------------------------------------------------
 Warning -- This program may not be used in any manner that
 competes with the business of Gaussian, Inc. or will provide
 assistance to any competitor of Gaussian, Inc.  The licensee
 of this program is prohibited from giving any competitor of
 Gaussian, Inc. access to this program.  By using this program,
 the user acknowledges that Gaussian, Inc. is engaged in the
 business of creating and licensing software in the field of
 computational chemistry and represents and warrants to the
 licensee that it is not a competitor of Gaussian, Inc. and that
 it will not use this program in any manner prohibited above.
 ---------------------------------------------------------------
  

 Cite this work as:
 Gaussian 16, Revision B.01,
 M. J. Frisch, G. W. Trucks, H. B. Schlegel, G. E. Scuseria, 
 M. A. Robb, J. R. Cheeseman, G. Scalmani, V. Barone, 
 G. A. Petersson, H. Nakatsuji, X. Li, M. Caricato, A. V. Marenich, 
 J. Bloino, B. G. Janesko, R. Gomperts, B. Mennucci, H. P. Hratchian, 
 J. V. Ortiz, A. F. Izmaylov, J. L. Sonnenberg, D. Williams-Young, 
 F. Ding, F. Lipparini, F. Egidi, J. Goings, B. Peng, A. Petrone, 
 T. Henderson, D. Ranasinghe, V. G. Zakrzewski, J. Gao, N. Rega, 
 G. Zheng, W. Liang, M. Hada, M. Ehara, K. Toyota, R. Fukuda, 
 J. Hasegawa, M. Ishida, T. Nakajima, Y. Honda, O. Kitao, H. Nakai, 
 T. Vreven, K. Throssell, J. A. Montgomery, Jr., J. E. Peralta, 
 F. Ogliaro, M. J. Bearpark, J. J. Heyd, E. N. Brothers, K. N. Kudin, 
 V. N. Staroverov, T. A. Keith, R. Kobayashi, J. Normand, 
 K. Raghavachari, A. P. Rendell, J. C. Burant, S. S. Iyengar, 
 J. Tomasi, M. Cossi, J. M. Millam, M. Klene, C. Adamo, R. Cammi, 
 J. W. Ochterski, R. L. Martin, K. Morokuma, O. Farkas, 
 J. B. Foresman, and D. J. Fox, Gaussian, Inc., Wallingford CT, 2016.
 
 ******************************************
 Gaussian 16:  ES64L-G16RevB.01 20-Dec-2017
                23-Dec-2020 
 ******************************************
 %NProcShared=16
 Will use up to   16 processors via shared memory.
 %Mem=6GB
 ----------------------------------------------------------------------
 # B3LYP/6-31+G* IRC=(CALCALL, maxpoints=40, StepSize=15, maxcyc=100, R
 eport=Cartesians)
 ----------------------------------------------------------------------
 1/6=100,10=4,18=10,26=3,38=1,39=15,42=40,44=3,71=1,129=10,172=1/1,23;
 2/12=2,17=6,18=5,29=1,40=1/2;
 3/5=1,6=6,7=11,11=2,25=1,30=1,71=2,74=-5,140=1/1,2,3;
 4//1;
 5/5=2,38=5/2;
 8/6=4,10=90,11=11/1;
 11/6=1,8=1,9=11,15=111,16=1/1,2,10;
 10/6=1,13=1/2;
 6/7=2,8=2,9=2,10=2,18=1,28=1/1;
 7/10=1,25=1/1,2,3,16;
 1/6=100,10=4,18=10,26=3,39=15,42=40,44=3,71=1,129=10/23(2);
 2/29=1/2;
 99/5=20/99;
 2/29=1/2;
 3/5=1,6=6,7=11,11=2,25=1,30=1,71=2,74=-5,140=1/1,2,3;
 4/5=5,16=3,69=1/1;
 5/5=2,38=5/2;
 8/6=4,10=90,11=11/1;
 11/6=1,8=1,9=11,15=111,16=1/1,2,10;
 10/6=1,13=1/2;
 7/10=1,25=1/1,2,3,16;
 1/6=100,10=4,18=10,26=3,39=15,42=40,44=3,71=1,129=10/23(-8);
 2/29=1/2;
 6/7=2,8=2,9=2,10=2,18=1,19=2,28=1/1;
 99/5=20/99;
 ----------
 pp_4_0 IRC
 ----------
 Symbolic Z-matrix:
 Charge =  0 Multiplicity = 1
 C                    -2.11862  -0.9122    0.03535 
 C                     1.14111   0.92743   0.47133 
 C                     1.80751  -0.33793   0.42042 
 O                    -2.28618   0.27634   0.25194 
 O                     0.08051   1.07273  -0.7253 
 O                     1.69463  -1.21614  -0.4345 
 H                    -0.82852   1.16614  -0.33349 
 H                    -1.18444  -1.29203  -0.41382 
 H                    -2.90565  -1.64283   0.28988 
 H                     2.51773  -0.46191   1.27054 
 H                     0.66892   1.24042   1.40085 
 H                     0.8403    1.86295  -0.51372 
 
 IRC-IRC-IRC-IRC-IRC-IRC-IRC-IRC-IRC-IRC-IRC-IRC-IRC-IRC-IRC-IRC-IRC-IRC
 ------------------------------------------------------------------------
 INPUT DATA FOR L123
 ------------------------------------------------------------------------
 GENERAL PARAMETERS:
 Follow reaction path in both directions.
 Maximum points per path      =  40
 Step size                    =   0.150 bohr
 Integration scheme           = HPC                                 
    Redo corrector integration= Yes                                 
    DWI Weight Power          =  2
    DWI will use Hessian update vectors when possible.
    Max correction cycles     = 100
 Initial Hessian              = CalcFC
 Hessian evaluation           = Analytic at all predictor steps
                              = Update at all corrector steps
 Hessian updating method      = Bofill                              
 ------------------------------------------------------------------------
 IRC-IRC-IRC-IRC-IRC-IRC-IRC-IRC-IRC-IRC-IRC-IRC-IRC-IRC-IRC-IRC-IRC-IRC
                          Input orientation:                          
 ---------------------------------------------------------------------
 Center     Atomic      Atomic             Coordinates (Angstroms)
 Number     Number       Type             X           Y           Z
 ---------------------------------------------------------------------
      1          6           0       -2.118623   -0.912197    0.035354
      2          6           0        1.141110    0.927432    0.471330
      3          6           0        1.807511   -0.337929    0.420422
      4          8           0       -2.286178    0.276338    0.251941
      5          8           0        0.080507    1.072731   -0.725298
      6          8           0        1.694630   -1.216141   -0.434502
      7          1           0       -0.828517    1.166144   -0.333489
      8          1           0       -1.184435   -1.292034   -0.413823
      9          1           0       -2.905646   -1.642834    0.289884
     10          1           0        2.517728   -0.461908    1.270544
     11          1           0        0.668917    1.240420    1.400846
     12          1           0        0.840299    1.862953   -0.513715
 ---------------------------------------------------------------------
                    Distance matrix (angstroms):
                    1          2          3          4          5
     1  C    0.000000
     2  C    3.768311   0.000000
     3  C    3.986551   1.431021   0.000000
     4  O    1.219672   3.495477   4.142946   0.000000
     5  O    3.058546   1.605587   2.507026   2.681499   0.000000
     6  O    3.854095   2.392033   1.230810   4.306452   2.815829
     7  H    2.473847   2.141062   3.127181   1.805342   0.994266
     8  H    1.103967   3.334319   3.249311   2.029007   2.699853
     9  H    1.103640   4.797439   4.892205   2.017028   4.161970
    10  H    4.819150   2.112838   1.114669   4.965891   3.504076
    11  H    3.777394   1.088544   2.179177   3.313914   2.212427
    12  H    4.093672   1.391402   2.579146   3.588654   1.116469
                    6          7          8          9         10
     6  O    0.000000
     7  H    3.471564   0.000000
     8  H    2.880139   2.485110   0.000000
     9  H    4.676467   3.548720   1.892309   0.000000
    10  H    2.038023   4.052262   4.151170   5.636423   0.000000
    11  H    3.233463   2.292541   3.625088   4.724922   2.516546
    12  H    3.196400   1.817408   3.750129   5.193113   3.376733
                   11         12
    11  H    0.000000
    12  H    2.020511   0.000000
 Symmetry turned off by external request.
 Stoichiometry    C3H6O3
 Framework group  C1[X(C3H6O3)]
 Deg. of freedom    30
 Full point group                 C1      NOp   1
 Rotational constants (GHZ):           5.2014608           1.8167328           1.5197965
 Standard basis: 6-31+G(d) (6D, 7F)
   126 basis functions,   216 primitive gaussians,   126 cartesian basis functions
    24 alpha electrons       24 beta electrons
       nuclear repulsion energy       223.8299437646 Hartrees.
 NAtoms=   12 NActive=   12 NUniq=   12 SFac= 1.00D+00 NAtFMM=   60 NAOKFM=F Big=F
 Integral buffers will be    131072 words long.
 Raffenetti 2 integral format.
 Two-electron integral symmetry is turned off.
 One-electron integrals computed using PRISM.
 NBasis=   126 RedAO= T EigKep=  1.24D-04  NBF=   126
 NBsUse=   126 1.00D-06 EigRej= -1.00D+00 NBFU=   126
 ExpMin= 4.38D-02 ExpMax= 5.48D+03 ExpMxC= 8.25D+02 IAcc=3 IRadAn=         5 AccDes= 0.00D+00
 Harris functional with IExCor=  402 and IRadAn=       5 diagonalized for initial guess.
 HarFok:  IExCor=  402 AccDes= 0.00D+00 IRadAn=         5 IDoV= 1 UseB2=F ITyADJ=14
 ICtDFT=  3500011 ScaDFX=  1.000000  1.000000  1.000000  1.000000
 FoFCou: FMM=F IPFlag=           0 FMFlag=      100000 FMFlg1=           0
         NFxFlg=           0 DoJE=T BraDBF=F KetDBF=T FulRan=T
         wScrn=  0.000000 ICntrl=       500 IOpCl=  0 I1Cent=   200000004 NGrid=           0
         NMat0=    1 NMatS0=      1 NMatT0=    0 NMatD0=    1 NMtDS0=    0 NMtDT0=    0
 Symmetry not used in FoFCou.
 Keep R1 ints in memory in canonical form, NReq=47237219.
 Requested convergence on RMS density matrix=1.00D-08 within 128 cycles.
 Requested convergence on MAX density matrix=1.00D-06.
 Requested convergence on             energy=1.00D-06.
 No special actions if energy rises.
 SCF Done:  E(RB3LYP) =  -343.444286742     A.U. after   14 cycles
            NFock= 14  Conv=0.32D-08     -V/T= 2.0092
 DoSCS=F DFT=T ScalE2(SS,OS)=  1.000000  1.000000
 Range of M.O.s used for correlation:     1   126
 NBasis=   126 NAE=    24 NBE=    24 NFC=     0 NFV=     0
 NROrb=    126 NOA=    24 NOB=    24 NVA=   102 NVB=   102

 **** Warning!!: The largest alpha MO coefficient is  0.27675624D+02

 Symmetrizing basis deriv contribution to polar:
 IMax=3 JMax=2 DiffMx= 0.00D+00
 G2DrvN: will do    13 centers at a time, making    1 passes.
 Calling FoFCou, ICntrl=  3107 FMM=F I1Cent=   0 AccDes= 0.00D+00.
 End of G2Drv F.D. properties file   721 does not exist.
 End of G2Drv F.D. properties file   722 does not exist.
 End of G2Drv F.D. properties file   788 does not exist.
          IDoAtm=111111111111
          Differentiating once with respect to nuclear coordinates.
 Keep R1 ints in memory in canonical form, NReq=47193255.
          There are    39 degrees of freedom in the 1st order CPHF.  IDoFFX=6 NUNeed=     0.
     33 vectors produced by pass  0 Test12= 6.28D-15 2.56D-09 XBig12= 1.50D-01 1.76D-01.
 AX will form    33 AO Fock derivatives at one time.
     33 vectors produced by pass  1 Test12= 6.28D-15 2.56D-09 XBig12= 1.43D-02 2.61D-02.
     33 vectors produced by pass  2 Test12= 6.28D-15 2.56D-09 XBig12= 2.80D-04 4.57D-03.
     33 vectors produced by pass  3 Test12= 6.28D-15 2.56D-09 XBig12= 1.97D-06 3.60D-04.
     33 vectors produced by pass  4 Test12= 6.28D-15 2.56D-09 XBig12= 2.63D-09 7.51D-06.
     29 vectors produced by pass  5 Test12= 6.28D-15 2.56D-09 XBig12= 2.44D-12 3.55D-07.
      6 vectors produced by pass  6 Test12= 6.28D-15 2.56D-09 XBig12= 2.37D-15 7.29D-09.
 InvSVY:  IOpt=1 It=  1 EMax= 1.67D-15
 Solved reduced A of dimension   200 with    33 vectors.
 End of Minotr F.D. properties file   721 does not exist.
 End of Minotr F.D. properties file   722 does not exist.
 End of Minotr F.D. properties file   788 does not exist.

 **********************************************************************

            Population analysis using the SCF Density.

 **********************************************************************

 Alpha  occ. eigenvalues --  -19.23583 -19.22193 -19.12862 -10.32682 -10.26382
 Alpha  occ. eigenvalues --  -10.23655  -1.10856  -1.08892  -1.01806  -0.73692
 Alpha  occ. eigenvalues --   -0.67411  -0.63143  -0.55006  -0.52893  -0.50138
 Alpha  occ. eigenvalues --   -0.49686  -0.44327  -0.43272  -0.41770  -0.40004
 Alpha  occ. eigenvalues --   -0.36984  -0.31885  -0.25085  -0.23323
 Alpha virt. eigenvalues --   -0.09222  -0.03257   0.00156   0.00969   0.01919
 Alpha virt. eigenvalues --    0.03219   0.04045   0.05888   0.06230   0.07511
 Alpha virt. eigenvalues --    0.08987   0.09955   0.10717   0.11584   0.13612
 Alpha virt. eigenvalues --    0.14295   0.15847   0.15965   0.18728   0.19691
 Alpha virt. eigenvalues --    0.21199   0.22827   0.23181   0.24735   0.25813
 Alpha virt. eigenvalues --    0.26573   0.26839   0.28498   0.29991   0.31183
 Alpha virt. eigenvalues --    0.32953   0.34066   0.36965   0.37463   0.40917
 Alpha virt. eigenvalues --    0.47682   0.61243   0.63464   0.66574   0.67852
 Alpha virt. eigenvalues --    0.69732   0.74650   0.76030   0.80956   0.82546
 Alpha virt. eigenvalues --    0.89670   0.90814   0.93801   0.94990   1.02783
 Alpha virt. eigenvalues --    1.04966   1.08818   1.10256   1.14570   1.15952
 Alpha virt. eigenvalues --    1.16649   1.17532   1.20694   1.25941   1.27703
 Alpha virt. eigenvalues --    1.29377   1.31303   1.33376   1.45147   1.47008
 Alpha virt. eigenvalues --    1.48961   1.52804   1.54159   1.56330   1.63822
 Alpha virt. eigenvalues --    1.67133   1.68421   1.73421   1.75170   1.81324
 Alpha virt. eigenvalues --    1.83392   1.88195   1.89318   1.93239   1.97184
 Alpha virt. eigenvalues --    2.01892   2.13099   2.13713   2.18629   2.30078
 Alpha virt. eigenvalues --    2.38045   2.41143   2.49320   2.49571   2.54037
 Alpha virt. eigenvalues --    2.61807   2.62878   2.79993   2.93019   2.94706
 Alpha virt. eigenvalues --    3.07834   3.97780   4.05799   4.17520   4.22293
 Alpha virt. eigenvalues --    4.26978   4.44654
          Condensed to atoms (all electrons):
               1          2          3          4          5          6
     1  C    4.916907  -0.007769  -0.004097   0.376187   0.004867  -0.000453
     2  C   -0.007769   6.823289  -0.256175   0.039251  -0.314283  -0.184283
     3  C   -0.004097  -0.256175   5.182152  -0.017336   0.031120   0.475688
     4  O    0.376187   0.039251  -0.017336   8.056565  -0.040328  -0.001886
     5  O    0.004867  -0.314283   0.031120  -0.040328   8.888092   0.005748
     6  O   -0.000453  -0.184283   0.475688  -0.001886   0.005748   8.206495
     7  H   -0.003747   0.004536  -0.005887   0.063943   0.110712   0.003138
     8  H    0.367740  -0.013470   0.008328  -0.061715   0.008409   0.004894
     9  H    0.359154   0.002984  -0.001712  -0.060706  -0.000830   0.000290
    10  H    0.000366  -0.217811   0.485029  -0.000009   0.009618  -0.068204
    11  H   -0.000789   0.334109  -0.009476   0.001322  -0.034705   0.003185
    12  H    0.001341   0.241676  -0.022693  -0.000113  -0.037874   0.006672
               7          8          9         10         11         12
     1  C   -0.003747   0.367740   0.359154   0.000366  -0.000789   0.001341
     2  C    0.004536  -0.013470   0.002984  -0.217811   0.334109   0.241676
     3  C   -0.005887   0.008328  -0.001712   0.485029  -0.009476  -0.022693
     4  O    0.063943  -0.061715  -0.060706  -0.000009   0.001322  -0.000113
     5  O    0.110712   0.008409  -0.000830   0.009618  -0.034705  -0.037874
     6  O    0.003138   0.004894   0.000290  -0.068204   0.003185   0.006672
     7  H    0.266578  -0.004517   0.000986  -0.000087  -0.004601   0.013897
     8  H   -0.004517   0.519104  -0.059622   0.000092  -0.000073  -0.000050
     9  H    0.000986  -0.059622   0.572191   0.000001   0.000009   0.000006
    10  H   -0.000087   0.000092   0.000001   0.636551   0.003281   0.000261
    11  H   -0.004601  -0.000073   0.000009   0.003281   0.510213  -0.007673
    12  H    0.013897  -0.000050   0.000006   0.000261  -0.007673   0.370128
 Mulliken charges:
               1
     1  C   -0.009708
     2  C   -0.452055
     3  C    0.135059
     4  O   -0.355176
     5  O   -0.630546
     6  O   -0.451283
     7  H    0.555047
     8  H    0.230881
     9  H    0.187248
    10  H    0.150913
    11  H    0.205197
    12  H    0.434423
 Sum of Mulliken charges =  -0.00000
 Mulliken charges with hydrogens summed into heavy atoms:
               1
     1  C    0.408421
     2  C   -0.246858
     3  C    0.285972
     4  O   -0.355176
     5  O    0.358924
     6  O   -0.451283
 APT charges:
               1
     1  C   -0.411822
     2  C   -0.589804
     3  C   -0.343825
     4  O   -0.380860
     5  O   -0.561403
     6  O   -0.476153
     7  H    0.554375
     8  H    0.173008
     9  H    0.667186
    10  H    0.501943
    11  H    0.390056
    12  H    0.477299
 Sum of APT charges =  -0.00000
 APT charges with hydrogens summed into heavy atoms:
               1
     1  C    0.428372
     2  C   -0.199748
     3  C    0.158118
     4  O   -0.380860
     5  O    0.470271
     6  O   -0.476153
 Electronic spatial extent (au):  <R**2>=            773.9529
 Charge=             -0.0000 electrons
 Dipole moment (field-independent basis, Debye):
    X=             -3.2549    Y=              0.7491    Z=              1.6426  Tot=              3.7221
 Quadrupole moment (field-independent basis, Debye-Ang):
   XX=            -39.0326   YY=            -35.6938   ZZ=            -36.9280
   XY=              7.6682   XZ=              3.8394   YZ=             -2.3301
 Traceless Quadrupole moment (field-independent basis, Debye-Ang):
   XX=             -1.8145   YY=              1.5243   ZZ=              0.2901
   XY=              7.6682   XZ=              3.8394   YZ=             -2.3301
 Octapole moment (field-independent basis, Debye-Ang**2):
  XXX=            -15.2910  YYY=              5.9426  ZZZ=             -0.5030  XYY=            -18.4821
  XXY=            -11.8687  XXZ=              0.1661  XZZ=             -2.2508  YZZ=              0.4134
  YYZ=             -1.5233  XYZ=             -3.5691
 Hexadecapole moment (field-independent basis, Debye-Ang**3):
 XXXX=           -679.7636 YYYY=           -233.2637 ZZZZ=            -94.0888 XXXY=             27.8522
 XXXZ=             11.4653 YYYX=              2.7593 YYYZ=            -11.2870 ZZZX=             -2.3699
 ZZZY=             -0.3957 XXYY=           -156.5243 XXZZ=           -125.0311 YYZZ=            -54.1540
 XXYZ=            -13.9149 YYXZ=             -2.8146 ZZXY=             -0.8429
 N-N= 2.238299437646D+02 E-N=-1.252009685864D+03  KE= 3.402979894394D+02
  Exact polarizability:   0.000   0.000   0.000   0.000   0.000   0.000
 Approx polarizability:  68.342 -10.485 103.335   7.415   7.697  67.582
 Calling FoFJK, ICntrl=    100127 FMM=F ISym2X=0 I1Cent= 0 IOpClX= 0 NMat=1 NMatS=1 NMatT=0.
 -------------------------------------------------------------------
 Center     Atomic                   Forces (Hartrees/Bohr)
 Number     Number              X              Y              Z
 -------------------------------------------------------------------
      1        6           0.000000312   -0.000000046   -0.000000058
      2        6          -0.000000714    0.000000303   -0.000000448
      3        6           0.000000033    0.000002232    0.000001224
      4        8           0.000000073   -0.000002258   -0.000000510
      5        8          -0.000000259    0.000000606   -0.000000631
      6        8           0.000000834   -0.000000030    0.000000408
      7        1           0.000000166   -0.000000806   -0.000000959
      8        1           0.000000625   -0.000001084    0.000000488
      9        1           0.000000631   -0.000001331    0.000000630
     10        1           0.000000190    0.000001870    0.000000649
     11        1          -0.000000517    0.000000939    0.000000199
     12        1          -0.000001375   -0.000000396   -0.000000992
 -------------------------------------------------------------------
 Cartesian Forces:  Max     0.000002258 RMS     0.000000891
 IRC-IRC-IRC-IRC-IRC-IRC-IRC-IRC-IRC-IRC-IRC-IRC-IRC-IRC-IRC-IRC-IRC-IRC
          ******** Start new reaction path calculation ********
 Supplied step size of   0.1500 bohr.
    Integration on MW PES will use step size of   0.1572 sqrt(amu)*bohr.
 Point Number:   0          Path Number:   1
 Calculating another point on the path.
 IRC-IRC-IRC-IRC-IRC-IRC-IRC-IRC-IRC-IRC-IRC-IRC-IRC-IRC-IRC-IRC-IRC-IRC
                          Input orientation:                          
 ---------------------------------------------------------------------
 Center     Atomic      Atomic             Coordinates (Angstroms)
 Number     Number       Type             X           Y           Z
 ---------------------------------------------------------------------
      1          6           0       -2.128373   -0.902693    0.054032
      2          6           0        1.134232    0.933440    0.493897
      3          6           0        1.796456   -0.327734    0.439639
      4          8           0       -2.295732    0.286203    0.270443
      5          8           0        0.072861    1.084217   -0.706000
      6          8           0        1.684886   -1.207071   -0.416379
      7          1           0       -0.839033    1.178251   -0.316011
      8          1           0       -1.194205   -1.283034   -0.394809
      9          1           0       -2.915523   -1.632859    0.308817
     10          1           0        2.508141   -0.450249    1.289330
     11          1           0        0.657058    1.251883    1.418436
     12          1           0        0.768742    1.879704   -0.543738
 ---------------------------------------------------------------------
                    Distance matrix (angstroms):
                    1          2          3          4          5
     1  C    0.000000
     2  C    3.769543   0.000000
     3  C    3.985418   1.425498   0.000000
     4  O    1.219966   3.497642   4.141443   0.000000
     5  O    3.061190   1.609035   2.505369   2.683375   0.000000
     6  O    3.854202   2.390315   1.232253   4.306612   2.816470
     7  H    2.475814   2.147012   3.128067   1.806004   0.996235
     8  H    1.103987   3.335293   3.248532   2.029391   2.702993
     9  H    1.103478   4.797985   4.891137   2.017030   4.164468
    10  H    4.819536   2.105929   1.115115   4.965651   3.502359
    11  H    3.776562   1.088060   2.179785   3.312008   2.209667
    12  H    4.061076   1.451098   2.626025   3.548681   1.069289
                    6          7          8          9         10
     6  O    0.000000
     7  H    3.474191   0.000000
     8  H    2.880173   2.488028   0.000000
     9  H    4.676640   3.550290   1.892195   0.000000
    10  H    2.039600   4.053728   4.151773   5.637029   0.000000
    11  H    3.235649   2.291728   3.625029   4.724016   2.518021
    12  H    3.222378   1.768852   3.725353   5.161275   3.437199
                   11         12
    11  H    0.000000
    12  H    2.063192   0.000000
 Symmetry turned off by external request.
 Stoichiometry    C3H6O3
 Framework group  C1[X(C3H6O3)]
 Deg. of freedom    30
 Full point group                 C1      NOp   1
 Rotational constants (GHZ):           5.1946356           1.8166547           1.5200105
 Standard basis: 6-31+G(d) (6D, 7F)
   126 basis functions,   216 primitive gaussians,   126 cartesian basis functions
    24 alpha electrons       24 beta electrons
       nuclear repulsion energy       223.8602485493 Hartrees.
 NAtoms=   12 NActive=   12 NUniq=   12 SFac= 1.00D+00 NAtFMM=   60 NAOKFM=F Big=F
 Integral buffers will be    131072 words long.
 Raffenetti 2 integral format.
 Two-electron integral symmetry is turned off.
 One-electron integrals computed using PRISM.
 NBasis=   126 RedAO= T EigKep=  1.21D-04  NBF=   126
 NBsUse=   126 1.00D-06 EigRej= -1.00D+00 NBFU=   126
 Initial guess from the checkpoint file:  "/scratch/bell/zhao922/YARP/paper-example/KHP-network/pp_0/IRC-folder/Gau-51818.chk"
 B after Tr=    -0.019874    0.018447    0.034328
         Rot=    1.000000    0.000420   -0.000117   -0.000176 Ang=   0.05 deg.
 ExpMin= 4.38D-02 ExpMax= 5.48D+03 ExpMxC= 8.25D+02 IAcc=3 IRadAn=         5 AccDes= 0.00D+00
 Harris functional with IExCor=  402 and IRadAn=       5 diagonalized for initial guess.
 HarFok:  IExCor=  402 AccDes= 0.00D+00 IRadAn=         5 IDoV= 1 UseB2=F ITyADJ=14
 ICtDFT=  3500011 ScaDFX=  1.000000  1.000000  1.000000  1.000000
 FoFCou: FMM=F IPFlag=           0 FMFlag=      100000 FMFlg1=           0
         NFxFlg=           0 DoJE=T BraDBF=F KetDBF=T FulRan=T
         wScrn=  0.000000 ICntrl=       500 IOpCl=  0 I1Cent=   200000004 NGrid=           0
         NMat0=    1 NMatS0=      1 NMatT0=    0 NMatD0=    1 NMtDS0=    0 NMtDT0=    0
 Symmetry not used in FoFCou.
 Keep R1 ints in memory in canonical form, NReq=47237219.
 Requested convergence on RMS density matrix=1.00D-08 within 128 cycles.
 Requested convergence on MAX density matrix=1.00D-06.
 Requested convergence on             energy=1.00D-06.
 No special actions if energy rises.
 SCF Done:  E(RB3LYP) =  -343.445329093     A.U. after   12 cycles
            NFock= 12  Conv=0.40D-08     -V/T= 2.0092
 DoSCS=F DFT=T ScalE2(SS,OS)=  1.000000  1.000000
 Range of M.O.s used for correlation:     1   126
 NBasis=   126 NAE=    24 NBE=    24 NFC=     0 NFV=     0
 NROrb=    126 NOA=    24 NOB=    24 NVA=   102 NVB=   102

 **** Warning!!: The largest alpha MO coefficient is  0.25904613D+02

 Symmetrizing basis deriv contribution to polar:
 IMax=3 JMax=2 DiffMx= 0.00D+00
 G2DrvN: will do    13 centers at a time, making    1 passes.
 Calling FoFCou, ICntrl=  3107 FMM=F I1Cent=   0 AccDes= 0.00D+00.
 End of G2Drv F.D. properties file   721 does not exist.
 End of G2Drv F.D. properties file   722 does not exist.
 End of G2Drv F.D. properties file   788 does not exist.
          IDoAtm=111111111111
          Differentiating once with respect to nuclear coordinates.
 Keep R1 ints in memory in canonical form, NReq=47193255.
          There are    39 degrees of freedom in the 1st order CPHF.  IDoFFX=6 NUNeed=     0.
     33 vectors produced by pass  0 Test12= 6.28D-15 2.56D-09 XBig12= 1.49D-01 1.58D-01.
 AX will form    33 AO Fock derivatives at one time.
     33 vectors produced by pass  1 Test12= 6.28D-15 2.56D-09 XBig12= 1.41D-02 2.55D-02.
     33 vectors produced by pass  2 Test12= 6.28D-15 2.56D-09 XBig12= 2.76D-04 3.62D-03.
     33 vectors produced by pass  3 Test12= 6.28D-15 2.56D-09 XBig12= 1.96D-06 3.92D-04.
     33 vectors produced by pass  4 Test12= 6.28D-15 2.56D-09 XBig12= 2.56D-09 8.15D-06.
     29 vectors produced by pass  5 Test12= 6.28D-15 2.56D-09 XBig12= 2.33D-12 3.52D-07.
      6 vectors produced by pass  6 Test12= 6.28D-15 2.56D-09 XBig12= 2.29D-15 7.30D-09.
 InvSVY:  IOpt=1 It=  1 EMax= 1.55D-15
 Solved reduced A of dimension   200 with    33 vectors.
 End of Minotr F.D. properties file   721 does not exist.
 End of Minotr F.D. properties file   722 does not exist.
 End of Minotr F.D. properties file   788 does not exist.
 Calling FoFJK, ICntrl=    100127 FMM=F ISym2X=0 I1Cent= 0 IOpClX= 0 NMat=1 NMatS=1 NMatT=0.
 -------------------------------------------------------------------
 Center     Atomic                   Forces (Hartrees/Bohr)
 Number     Number              X              Y              Z
 -------------------------------------------------------------------
      1        6           0.000222318   -0.000207492   -0.000011415
      2        6           0.005307853   -0.006845732    0.007165826
      3        6          -0.002301253    0.000914713    0.001045812
      4        8           0.000790769    0.000615679   -0.000496317
      5        8           0.004514146    0.003429587    0.001997033
      6        8           0.000319089   -0.001463617   -0.001484276
      7        1          -0.000044426    0.000152287   -0.000356078
      8        1           0.000018844   -0.000102478    0.000055739
      9        1          -0.000008327    0.000053064    0.000044509
     10        1           0.000044291    0.000318732    0.000022546
     11        1          -0.000278911    0.000312005   -0.000145090
     12        1          -0.008584393    0.002823251   -0.007838290
 -------------------------------------------------------------------
 Cartesian Forces:  Max     0.008584393 RMS     0.002977243
 IRC-IRC-IRC-IRC-IRC-IRC-IRC-IRC-IRC-IRC-IRC-IRC-IRC-IRC-IRC-IRC-IRC-IRC
 Pt  1 Step number   1 out of a maximum of 100
 Modified Bulirsch-Stoer Extrapolation Cycles:
    EPS =    0.000010000000000
      PEZero:  N= 2 I= 1 D=  4.09D-04 Err=  8.73D-04
      PEZero:  N= 3 I= 2 D=  4.09D-04 Err=  5.82D-04
      PEZero:  N= 3 I= 1 D=  8.19D-04 Err=  1.78D-07
 Maximum DWI energy   std dev =  0.000017755 at pt     1
 Maximum DWI gradient std dev =  0.026121831 at pt    23
 CORRECTOR INTEGRATION CONVERGENCE:
   Recorrection delta-x convergence threshold:    0.010000
   Delta-x Convergence Met
 Point Number:   1          Path Number:   1
   CHANGE IN THE REACTION COORDINATE =    0.15714
   NET REACTION COORDINATE UP TO THIS POINT =    0.15714
  # OF POINTS ALONG THE PATH =   1
  # OF STEPS =   1

 Calculating another point on the path.
 IRC-IRC-IRC-IRC-IRC-IRC-IRC-IRC-IRC-IRC-IRC-IRC-IRC-IRC-IRC-IRC-IRC-IRC
                          Input orientation:                          
 ---------------------------------------------------------------------
 Center     Atomic      Atomic             Coordinates (Angstroms)
 Number     Number       Type             X           Y           Z
 ---------------------------------------------------------------------
      1          6           0       -2.128245   -0.902808    0.054030
      2          6           0        1.136992    0.929820    0.497614
      3          6           0        1.795163   -0.327281    0.440246
      4          8           0       -2.295387    0.286462    0.270218
      5          8           0        0.075011    1.085813   -0.704989
      6          8           0        1.685026   -1.207700   -0.417020
      7          1           0       -0.840137    1.178671   -0.318401
      8          1           0       -1.194088   -1.283725   -0.394423
      9          1           0       -2.915561   -1.632480    0.309129
     10          1           0        2.508360   -0.448237    1.289479
     11          1           0        0.655566    1.254117    1.417491
     12          1           0        0.710239    1.894985   -0.594997
 ---------------------------------------------------------------------
                    Distance matrix (angstroms):
                    1          2          3          4          5
     1  C    0.000000
     2  C    3.770552   0.000000
     3  C    3.984159   1.420135   0.000000
     4  O    1.220261   3.499549   4.139830   0.000000
     5  O    3.063504   1.611953   2.503462   2.684916   0.000000
     6  O    3.854333   2.388700   1.233764   4.306798   2.816963
     7  H    2.475981   2.153333   3.128617   1.805620   0.997781
     8  H    1.104018   3.336082   3.247628   2.029801   2.705878
     9  H    1.103342   4.798343   4.889955   2.017045   4.166662
    10  H    4.819863   2.099224   1.115562   4.965347   3.500343
    11  H    3.776368   1.087710   2.180484   3.310698   2.206874
    12  H    4.038053   1.519032   2.680905   3.517062   1.034588
                    6          7          8          9         10
     6  O    0.000000
     7  H    3.475765   0.000000
     8  H    2.880207   2.488867   0.000000
     9  H    4.676872   3.550176   1.892111   0.000000
    10  H    2.041275   4.055187   4.152312   5.637592   0.000000
    11  H    3.238173   2.292628   3.625590   4.723755   2.519373
    12  H    3.257076   1.730108   3.710915   5.138762   3.503595
                   11         12
    11  H    0.000000
    12  H    2.112773   0.000000
 Symmetry turned off by external request.
 Stoichiometry    C3H6O3
 Framework group  C1[X(C3H6O3)]
 Deg. of freedom    30
 Full point group                 C1      NOp   1
 Rotational constants (GHZ):           5.1866185           1.8165715           1.5201167
 Standard basis: 6-31+G(d) (6D, 7F)
   126 basis functions,   216 primitive gaussians,   126 cartesian basis functions
    24 alpha electrons       24 beta electrons
       nuclear repulsion energy       223.8505565101 Hartrees.
 NAtoms=   12 NActive=   12 NUniq=   12 SFac= 1.00D+00 NAtFMM=   60 NAOKFM=F Big=F
 Integral buffers will be    131072 words long.
 Raffenetti 2 integral format.
 Two-electron integral symmetry is turned off.
 One-electron integrals computed using PRISM.
 NBasis=   126 RedAO= T EigKep=  1.19D-04  NBF=   126
 NBsUse=   126 1.00D-06 EigRej= -1.00D+00 NBFU=   126
 Initial guess from the checkpoint file:  "/scratch/bell/zhao922/YARP/paper-example/KHP-network/pp_0/IRC-folder/Gau-51818.chk"
 B after Tr=    -0.001189    0.000361   -0.001038
         Rot=    1.000000    0.000432   -0.000117   -0.000179 Ang=   0.06 deg.
 ExpMin= 4.38D-02 ExpMax= 5.48D+03 ExpMxC= 8.25D+02 IAcc=3 IRadAn=         5 AccDes= 0.00D+00
 Harris functional with IExCor=  402 and IRadAn=       5 diagonalized for initial guess.
 HarFok:  IExCor=  402 AccDes= 0.00D+00 IRadAn=         5 IDoV= 1 UseB2=F ITyADJ=14
 ICtDFT=  3500011 ScaDFX=  1.000000  1.000000  1.000000  1.000000
 FoFCou: FMM=F IPFlag=           0 FMFlag=      100000 FMFlg1=           0
         NFxFlg=           0 DoJE=T BraDBF=F KetDBF=T FulRan=T
         wScrn=  0.000000 ICntrl=       500 IOpCl=  0 I1Cent=   200000004 NGrid=           0
         NMat0=    1 NMatS0=      1 NMatT0=    0 NMatD0=    1 NMtDS0=    0 NMtDT0=    0
 Symmetry not used in FoFCou.
 Keep R1 ints in memory in canonical form, NReq=47237219.
 Requested convergence on RMS density matrix=1.00D-08 within 128 cycles.
 Requested convergence on MAX density matrix=1.00D-06.
 Requested convergence on             energy=1.00D-06.
 No special actions if energy rises.
 SCF Done:  E(RB3LYP) =  -343.447938779     A.U. after   12 cycles
            NFock= 12  Conv=0.42D-08     -V/T= 2.0092
 DoSCS=F DFT=T ScalE2(SS,OS)=  1.000000  1.000000
 Range of M.O.s used for correlation:     1   126
 NBasis=   126 NAE=    24 NBE=    24 NFC=     0 NFV=     0
 NROrb=    126 NOA=    24 NOB=    24 NVA=   102 NVB=   102

 **** Warning!!: The largest alpha MO coefficient is  0.28669682D+02

 Symmetrizing basis deriv contribution to polar:
 IMax=3 JMax=2 DiffMx= 0.00D+00
 G2DrvN: will do    13 centers at a time, making    1 passes.
 Calling FoFCou, ICntrl=  3107 FMM=F I1Cent=   0 AccDes= 0.00D+00.
 End of G2Drv F.D. properties file   721 does not exist.
 End of G2Drv F.D. properties file   722 does not exist.
 End of G2Drv F.D. properties file   788 does not exist.
          IDoAtm=111111111111
          Differentiating once with respect to nuclear coordinates.
 Keep R1 ints in memory in canonical form, NReq=47193255.
          There are    39 degrees of freedom in the 1st order CPHF.  IDoFFX=6 NUNeed=     0.
     33 vectors produced by pass  0 Test12= 6.28D-15 2.56D-09 XBig12= 1.48D-01 1.40D-01.
 AX will form    33 AO Fock derivatives at one time.
     33 vectors produced by pass  1 Test12= 6.28D-15 2.56D-09 XBig12= 1.52D-02 2.70D-02.
     33 vectors produced by pass  2 Test12= 6.28D-15 2.56D-09 XBig12= 2.74D-04 3.06D-03.
     33 vectors produced by pass  3 Test12= 6.28D-15 2.56D-09 XBig12= 1.97D-06 4.35D-04.
     33 vectors produced by pass  4 Test12= 6.28D-15 2.56D-09 XBig12= 2.52D-09 8.41D-06.
     29 vectors produced by pass  5 Test12= 6.28D-15 2.56D-09 XBig12= 2.28D-12 3.17D-07.
      6 vectors produced by pass  6 Test12= 6.28D-15 2.56D-09 XBig12= 2.31D-15 6.36D-09.
 InvSVY:  IOpt=1 It=  1 EMax= 1.33D-15
 Solved reduced A of dimension   200 with    33 vectors.
 End of Minotr F.D. properties file   721 does not exist.
 End of Minotr F.D. properties file   722 does not exist.
 End of Minotr F.D. properties file   788 does not exist.
 Calling FoFJK, ICntrl=    100127 FMM=F ISym2X=0 I1Cent= 0 IOpClX= 0 NMat=1 NMatS=1 NMatT=0.
 -------------------------------------------------------------------
 Center     Atomic                   Forces (Hartrees/Bohr)
 Number     Number              X              Y              Z
 -------------------------------------------------------------------
      1        6           0.000397509   -0.000317755    0.000008625
      2        6           0.007657989   -0.010318093    0.010510344
      3        6          -0.003814602    0.001123827    0.001798536
      4        8           0.001394595    0.001021364   -0.000935714
      5        8           0.007723690    0.005316448    0.004509093
      6        8           0.000586984   -0.002507663   -0.002564231
      7        1          -0.000224274   -0.000180557   -0.000701986
      8        1           0.000030582   -0.000171054    0.000097640
      9        1          -0.000014735    0.000094456    0.000083066
     10        1           0.000034456    0.000475560    0.000042543
     11        1          -0.000291033    0.000575565   -0.000209339
     12        1          -0.013481161    0.004887903   -0.012638575
 -------------------------------------------------------------------
 Cartesian Forces:  Max     0.013481161 RMS     0.004675272
 IRC-IRC-IRC-IRC-IRC-IRC-IRC-IRC-IRC-IRC-IRC-IRC-IRC-IRC-IRC-IRC-IRC-IRC
 Pt  2 Step number   1 out of a maximum of 100
 Modified Bulirsch-Stoer Extrapolation Cycles:
    EPS =    0.000010000000000
      PEZero:  N= 2 I= 1 D=  8.19D-04 Err=  3.66D-05
      PEZero:  N= 3 I= 2 D=  8.19D-04 Err=  2.42D-05
      PEZero:  N= 3 I= 1 D=  1.64D-03 Err=  2.18D-07
 Maximum DWI energy   std dev =  0.000017626 at pt    14
 Maximum DWI gradient std dev =  0.021579560 at pt    17
 CORRECTOR INTEGRATION CONVERGENCE:
   Recorrection delta-x convergence threshold:    0.010000
   Delta-x Convergence Met
 Point Number:   2          Path Number:   1
   CHANGE IN THE REACTION COORDINATE =    0.15712
   NET REACTION COORDINATE UP TO THIS POINT =    0.31427
  # OF POINTS ALONG THE PATH =   2
  # OF STEPS =   1

 Calculating another point on the path.
 IRC-IRC-IRC-IRC-IRC-IRC-IRC-IRC-IRC-IRC-IRC-IRC-IRC-IRC-IRC-IRC-IRC-IRC
                          Input orientation:                          
 ---------------------------------------------------------------------
 Center     Atomic      Atomic             Coordinates (Angstroms)
 Number     Number       Type             X           Y           Z
 ---------------------------------------------------------------------
      1          6           0       -2.128099   -0.902919    0.054040
      2          6           0        1.139484    0.926355    0.501073
      3          6           0        1.793803   -0.326953    0.440896
      4          8           0       -2.295001    0.286734    0.269950
      5          8           0        0.077179    1.087272   -0.703618
      6          8           0        1.685192   -1.208381   -0.417720
      7          1           0       -0.841614    1.176955   -0.321521
      8          1           0       -1.193958   -1.284458   -0.393997
      9          1           0       -2.915617   -1.632064    0.309504
     10          1           0        2.508412   -0.446364    1.289695
     11          1           0        0.654734    1.256727    1.416704
     12          1           0        0.654043    1.914532   -0.647554
 ---------------------------------------------------------------------
                    Distance matrix (angstroms):
                    1          2          3          4          5
     1  C    0.000000
     2  C    3.771363   0.000000
     3  C    3.982802   1.415110   0.000000
     4  O    1.220552   3.501174   4.138134   0.000000
     5  O    3.065641   1.614208   2.501348   2.686249   0.000000
     6  O    3.854484   2.387274   1.235287   4.306994   2.817351
     7  H    2.474261   2.159678   3.128649   1.804069   0.999110
     8  H    1.104051   3.336735   3.246626   2.030213   2.708645
     9  H    1.103222   4.798546   4.888682   2.017056   4.168696
    10  H    4.820013   2.092905   1.115969   4.964886   3.498033
    11  H    3.776914   1.087431   2.181220   3.310116   2.204098
    12  H    4.021266   1.591066   2.740078   3.491189   1.010086
                    6          7          8          9         10
     6  O    0.000000
     7  H    3.476181   0.000000
     8  H    2.880253   2.487560   0.000000
     9  H    4.677157   3.548277   1.892050   0.000000
    10  H    2.042946   4.056336   4.152682   5.637974   0.000000
    11  H    3.240943   2.294961   3.626834   4.724237   2.520471
    12  H    3.296768   1.699208   3.703098   5.122185   3.572877
                   11         12
    11  H    0.000000
    12  H    2.166533   0.000000
 Symmetry turned off by external request.
 Stoichiometry    C3H6O3
 Framework group  C1[X(C3H6O3)]
 Deg. of freedom    30
 Full point group                 C1      NOp   1
 Rotational constants (GHZ):           5.1779223           1.8165127           1.5201613
 Standard basis: 6-31+G(d) (6D, 7F)
   126 basis functions,   216 primitive gaussians,   126 cartesian basis functions
    24 alpha electrons       24 beta electrons
       nuclear repulsion energy       223.8135417880 Hartrees.
 NAtoms=   12 NActive=   12 NUniq=   12 SFac= 1.00D+00 NAtFMM=   60 NAOKFM=F Big=F
 Integral buffers will be    131072 words long.
 Raffenetti 2 integral format.
 Two-electron integral symmetry is turned off.
 One-electron integrals computed using PRISM.
 NBasis=   126 RedAO= T EigKep=  1.17D-04  NBF=   126
 NBsUse=   126 1.00D-06 EigRej= -1.00D+00 NBFU=   126
 Initial guess from the checkpoint file:  "/scratch/bell/zhao922/YARP/paper-example/KHP-network/pp_0/IRC-folder/Gau-51818.chk"
 B after Tr=    -0.001141    0.000408   -0.001071
         Rot=    1.000000    0.000438   -0.000117   -0.000179 Ang=   0.06 deg.
 ExpMin= 4.38D-02 ExpMax= 5.48D+03 ExpMxC= 8.25D+02 IAcc=3 IRadAn=         5 AccDes= 0.00D+00
 Harris functional with IExCor=  402 and IRadAn=       5 diagonalized for initial guess.
 HarFok:  IExCor=  402 AccDes= 0.00D+00 IRadAn=         5 IDoV= 1 UseB2=F ITyADJ=14
 ICtDFT=  3500011 ScaDFX=  1.000000  1.000000  1.000000  1.000000
 FoFCou: FMM=F IPFlag=           0 FMFlag=      100000 FMFlg1=           0
         NFxFlg=           0 DoJE=T BraDBF=F KetDBF=T FulRan=T
         wScrn=  0.000000 ICntrl=       500 IOpCl=  0 I1Cent=   200000004 NGrid=           0
         NMat0=    1 NMatS0=      1 NMatT0=    0 NMatD0=    1 NMtDS0=    0 NMtDT0=    0
 Symmetry not used in FoFCou.
 Keep R1 ints in memory in canonical form, NReq=47237219.
 Requested convergence on RMS density matrix=1.00D-08 within 128 cycles.
 Requested convergence on MAX density matrix=1.00D-06.
 Requested convergence on             energy=1.00D-06.
 No special actions if energy rises.
 SCF Done:  E(RB3LYP) =  -343.451375893     A.U. after   12 cycles
            NFock= 12  Conv=0.32D-08     -V/T= 2.0092
 DoSCS=F DFT=T ScalE2(SS,OS)=  1.000000  1.000000
 Range of M.O.s used for correlation:     1   126
 NBasis=   126 NAE=    24 NBE=    24 NFC=     0 NFV=     0
 NROrb=    126 NOA=    24 NOB=    24 NVA=   102 NVB=   102

 **** Warning!!: The largest alpha MO coefficient is  0.29436829D+02

 Symmetrizing basis deriv contribution to polar:
 IMax=3 JMax=2 DiffMx= 0.00D+00
 G2DrvN: will do    13 centers at a time, making    1 passes.
 Calling FoFCou, ICntrl=  3107 FMM=F I1Cent=   0 AccDes= 0.00D+00.
 End of G2Drv F.D. properties file   721 does not exist.
 End of G2Drv F.D. properties file   722 does not exist.
 End of G2Drv F.D. properties file   788 does not exist.
          IDoAtm=111111111111
          Differentiating once with respect to nuclear coordinates.
 Keep R1 ints in memory in canonical form, NReq=47193255.
          There are    39 degrees of freedom in the 1st order CPHF.  IDoFFX=6 NUNeed=     0.
     33 vectors produced by pass  0 Test12= 6.28D-15 2.56D-09 XBig12= 1.48D-01 1.28D-01.
 AX will form    33 AO Fock derivatives at one time.
     33 vectors produced by pass  1 Test12= 6.28D-15 2.56D-09 XBig12= 1.71D-02 2.90D-02.
     33 vectors produced by pass  2 Test12= 6.28D-15 2.56D-09 XBig12= 2.75D-04 3.17D-03.
     33 vectors produced by pass  3 Test12= 6.28D-15 2.56D-09 XBig12= 1.98D-06 4.52D-04.
     33 vectors produced by pass  4 Test12= 6.28D-15 2.56D-09 XBig12= 2.53D-09 8.57D-06.
     29 vectors produced by pass  5 Test12= 6.28D-15 2.56D-09 XBig12= 2.36D-12 2.82D-07.
      7 vectors produced by pass  6 Test12= 6.28D-15 2.56D-09 XBig12= 2.35D-15 6.16D-09.
 InvSVY:  IOpt=1 It=  1 EMax= 2.11D-15
 Solved reduced A of dimension   201 with    33 vectors.
 End of Minotr F.D. properties file   721 does not exist.
 End of Minotr F.D. properties file   722 does not exist.
 End of Minotr F.D. properties file   788 does not exist.
 Calling FoFJK, ICntrl=    100127 FMM=F ISym2X=0 I1Cent= 0 IOpClX= 0 NMat=1 NMatS=1 NMatT=0.
 -------------------------------------------------------------------
 Center     Atomic                   Forces (Hartrees/Bohr)
 Number     Number              X              Y              Z
 -------------------------------------------------------------------
      1        6           0.000527998   -0.000349068    0.000051969
      2        6           0.007714998   -0.011117948    0.011003134
      3        6          -0.004673174    0.000773188    0.002226033
      4        8           0.001837457    0.001246353   -0.001317112
      5        8           0.009633612    0.006107228    0.007222600
      6        8           0.000811903   -0.003165831   -0.003275142
      7        1          -0.000412730   -0.000950562   -0.001007756
      8        1           0.000039028   -0.000211670    0.000126180
      9        1          -0.000020770    0.000122171    0.000117470
     10        1          -0.000029189    0.000496132    0.000076410
     11        1          -0.000100864    0.000803315   -0.000198586
     12        1          -0.015328268    0.006246693   -0.015025200
 -------------------------------------------------------------------
 Cartesian Forces:  Max     0.015328268 RMS     0.005388257
 IRC-IRC-IRC-IRC-IRC-IRC-IRC-IRC-IRC-IRC-IRC-IRC-IRC-IRC-IRC-IRC-IRC-IRC
 Pt  3 Step number   1 out of a maximum of 100
 Modified Bulirsch-Stoer Extrapolation Cycles:
    EPS =    0.000010000000000
      PEZero:  N= 2 I= 1 D=  8.19D-04 Err=  3.44D-05
      PEZero:  N= 3 I= 2 D=  8.19D-04 Err=  2.29D-05
      PEZero:  N= 3 I= 1 D=  1.64D-03 Err=  9.90D-08
 Maximum DWI energy   std dev =  0.000013264 at pt    34
 Maximum DWI gradient std dev =  0.008118913 at pt    35
 CORRECTOR INTEGRATION CONVERGENCE:
   Recorrection delta-x convergence threshold:    0.010000
   Delta-x Convergence Met
 Point Number:   3          Path Number:   1
   CHANGE IN THE REACTION COORDINATE =    0.15715
   NET REACTION COORDINATE UP TO THIS POINT =    0.47142
  # OF POINTS ALONG THE PATH =   3
  # OF STEPS =   1

 Calculating another point on the path.
 IRC-IRC-IRC-IRC-IRC-IRC-IRC-IRC-IRC-IRC-IRC-IRC-IRC-IRC-IRC-IRC-IRC-IRC
                          Input orientation:                          
 ---------------------------------------------------------------------
 Center     Atomic      Atomic             Coordinates (Angstroms)
 Number     Number       Type             X           Y           Z
 ---------------------------------------------------------------------
      1          6           0       -2.127932   -0.903025    0.054065
      2          6           0        1.141573    0.923205    0.504120
      3          6           0        1.792362   -0.326800    0.441576
      4          8           0       -2.294559    0.287021    0.269623
      5          8           0        0.079482    1.088706   -0.701760
      6          8           0        1.685390   -1.209121   -0.418490
      7          1           0       -0.843554    1.172184   -0.325313
      8          1           0       -1.193815   -1.285239   -0.393526
      9          1           0       -2.915687   -1.631596    0.309965
     10          1           0        2.508148   -0.444751    1.290045
     11          1           0        0.654856    1.259916    1.416099
     12          1           0        0.599630    1.936185   -0.701180
 ---------------------------------------------------------------------
                    Distance matrix (angstroms):
                    1          2          3          4          5
     1  C    0.000000
     2  C    3.771914   0.000000
     3  C    3.981320   1.410656   0.000000
     4  O    1.220835   3.502389   4.136335   0.000000
     5  O    3.067726   1.615418   2.498966   2.687445   0.000000
     6  O    3.854663   2.386160   1.236789   4.307196   2.817657
     7  H    2.469827   2.165798   3.127798   1.800800   1.000338
     8  H    1.104083   3.337220   3.245498   2.030617   2.711441
     9  H    1.103113   4.798549   4.887283   2.017057   4.170692
    10  H    4.819844   2.087225   1.116316   4.964146   3.495310
    11  H    3.778539   1.087186   2.182036   3.310586   2.201294
    12  H    4.008878   1.665106   2.801713   3.469659   0.994371
                    6          7          8          9         10
     6  O    0.000000
     7  H    3.474889   0.000000
     8  H    2.880319   2.483196   0.000000
     9  H    4.677503   3.543797   1.892010   0.000000
    10  H    2.044574   4.056817   4.152754   5.638009   0.000000
    11  H    3.244050   2.299010   3.629069   4.725796   2.521204
    12  H    3.339422   1.675635   3.699820   5.109690   3.643662
                   11         12
    11  H    0.000000
    12  H    2.223345   0.000000
 Symmetry turned off by external request.
 Stoichiometry    C3H6O3
 Framework group  C1[X(C3H6O3)]
 Deg. of freedom    30
 Full point group                 C1      NOp   1
 Rotational constants (GHZ):           5.1688799           1.8165500           1.5201800
 Standard basis: 6-31+G(d) (6D, 7F)
   126 basis functions,   216 primitive gaussians,   126 cartesian basis functions
    24 alpha electrons       24 beta electrons
       nuclear repulsion energy       223.7576263059 Hartrees.
 NAtoms=   12 NActive=   12 NUniq=   12 SFac= 1.00D+00 NAtFMM=   60 NAOKFM=F Big=F
 Integral buffers will be    131072 words long.
 Raffenetti 2 integral format.
 Two-electron integral symmetry is turned off.
 One-electron integrals computed using PRISM.
 NBasis=   126 RedAO= T EigKep=  1.15D-04  NBF=   126
 NBsUse=   126 1.00D-06 EigRej= -1.00D+00 NBFU=   126
 Initial guess from the checkpoint file:  "/scratch/bell/zhao922/YARP/paper-example/KHP-network/pp_0/IRC-folder/Gau-51818.chk"
 B after Tr=    -0.001102    0.000396   -0.001096
         Rot=    1.000000    0.000451   -0.000117   -0.000178 Ang=   0.06 deg.
 ExpMin= 4.38D-02 ExpMax= 5.48D+03 ExpMxC= 8.25D+02 IAcc=3 IRadAn=         5 AccDes= 0.00D+00
 Harris functional with IExCor=  402 and IRadAn=       5 diagonalized for initial guess.
 HarFok:  IExCor=  402 AccDes= 0.00D+00 IRadAn=         5 IDoV= 1 UseB2=F ITyADJ=14
 ICtDFT=  3500011 ScaDFX=  1.000000  1.000000  1.000000  1.000000
 FoFCou: FMM=F IPFlag=           0 FMFlag=      100000 FMFlg1=           0
         NFxFlg=           0 DoJE=T BraDBF=F KetDBF=T FulRan=T
         wScrn=  0.000000 ICntrl=       500 IOpCl=  0 I1Cent=   200000004 NGrid=           0
         NMat0=    1 NMatS0=      1 NMatT0=    0 NMatD0=    1 NMtDS0=    0 NMtDT0=    0
 Symmetry not used in FoFCou.
 Keep R1 ints in memory in canonical form, NReq=47237219.
 Requested convergence on RMS density matrix=1.00D-08 within 128 cycles.
 Requested convergence on MAX density matrix=1.00D-06.
 Requested convergence on             energy=1.00D-06.
 No special actions if energy rises.
 SCF Done:  E(RB3LYP) =  -343.455100644     A.U. after   12 cycles
            NFock= 12  Conv=0.27D-08     -V/T= 2.0092
 DoSCS=F DFT=T ScalE2(SS,OS)=  1.000000  1.000000
 Range of M.O.s used for correlation:     1   126
 NBasis=   126 NAE=    24 NBE=    24 NFC=     0 NFV=     0
 NROrb=    126 NOA=    24 NOB=    24 NVA=   102 NVB=   102

 **** Warning!!: The largest alpha MO coefficient is  0.29381373D+02

 Symmetrizing basis deriv contribution to polar:
 IMax=3 JMax=2 DiffMx= 0.00D+00
 G2DrvN: will do    13 centers at a time, making    1 passes.
 Calling FoFCou, ICntrl=  3107 FMM=F I1Cent=   0 AccDes= 0.00D+00.
 End of G2Drv F.D. properties file   721 does not exist.
 End of G2Drv F.D. properties file   722 does not exist.
 End of G2Drv F.D. properties file   788 does not exist.
          IDoAtm=111111111111
          Differentiating once with respect to nuclear coordinates.
 Keep R1 ints in memory in canonical form, NReq=47193255.
          There are    39 degrees of freedom in the 1st order CPHF.  IDoFFX=6 NUNeed=     0.
     33 vectors produced by pass  0 Test12= 6.28D-15 2.56D-09 XBig12= 1.48D-01 1.22D-01.
 AX will form    33 AO Fock derivatives at one time.
     33 vectors produced by pass  1 Test12= 6.28D-15 2.56D-09 XBig12= 1.86D-02 2.96D-02.
     33 vectors produced by pass  2 Test12= 6.28D-15 2.56D-09 XBig12= 2.78D-04 3.26D-03.
     33 vectors produced by pass  3 Test12= 6.28D-15 2.56D-09 XBig12= 2.02D-06 4.54D-04.
     33 vectors produced by pass  4 Test12= 6.28D-15 2.56D-09 XBig12= 2.61D-09 8.74D-06.
     30 vectors produced by pass  5 Test12= 6.28D-15 2.56D-09 XBig12= 2.54D-12 2.56D-07.
      7 vectors produced by pass  6 Test12= 6.28D-15 2.56D-09 XBig12= 2.46D-15 5.74D-09.
 InvSVY:  IOpt=1 It=  1 EMax= 1.78D-15
 Solved reduced A of dimension   202 with    33 vectors.
 End of Minotr F.D. properties file   721 does not exist.
 End of Minotr F.D. properties file   722 does not exist.
 End of Minotr F.D. properties file   788 does not exist.
 Calling FoFJK, ICntrl=    100127 FMM=F ISym2X=0 I1Cent= 0 IOpClX= 0 NMat=1 NMatS=1 NMatT=0.
 -------------------------------------------------------------------
 Center     Atomic                   Forces (Hartrees/Bohr)
 Number     Number              X              Y              Z
 -------------------------------------------------------------------
      1        6           0.000615303   -0.000352708    0.000115352
      2        6           0.006343354   -0.010043178    0.009644018
      3        6          -0.005091611    0.000129854    0.002332078
      4        8           0.002171843    0.001341425   -0.001663397
      5        8           0.010983842    0.006986821    0.009736094
      6        8           0.001000104   -0.003510957   -0.003678573
      7        1          -0.000550813   -0.001954579   -0.001183005
      8        1           0.000042853   -0.000230829    0.000143058
      9        1          -0.000024736    0.000141912    0.000148806
     10        1          -0.000148678    0.000414522    0.000128310
     11        1           0.000211790    0.001022726   -0.000154061
     12        1          -0.015553251    0.006054993   -0.015568680
 -------------------------------------------------------------------
 Cartesian Forces:  Max     0.015568680 RMS     0.005513413
 IRC-IRC-IRC-IRC-IRC-IRC-IRC-IRC-IRC-IRC-IRC-IRC-IRC-IRC-IRC-IRC-IRC-IRC
 Pt  4 Step number   1 out of a maximum of 100
 Modified Bulirsch-Stoer Extrapolation Cycles:
    EPS =    0.000010000000000
      PEZero:  N= 2 I= 1 D=  8.19D-04 Err=  4.36D-05
      PEZero:  N= 3 I= 2 D=  8.19D-04 Err=  2.90D-05
      PEZero:  N= 3 I= 1 D=  1.64D-03 Err=  4.71D-08
 Maximum DWI energy   std dev =  0.000009301 at pt    34
 Maximum DWI gradient std dev =  0.003605225 at pt    15
 CORRECTOR INTEGRATION CONVERGENCE:
   Recorrection delta-x convergence threshold:    0.010000
   Delta-x Convergence Met
 Point Number:   4          Path Number:   1
   CHANGE IN THE REACTION COORDINATE =    0.15715
   NET REACTION COORDINATE UP TO THIS POINT =    0.62857
  # OF POINTS ALONG THE PATH =   4
  # OF STEPS =   1

 Calculating another point on the path.
 IRC-IRC-IRC-IRC-IRC-IRC-IRC-IRC-IRC-IRC-IRC-IRC-IRC-IRC-IRC-IRC-IRC-IRC
                          Input orientation:                          
 ---------------------------------------------------------------------
 Center     Atomic      Atomic             Coordinates (Angstroms)
 Number     Number       Type             X           Y           Z
 ---------------------------------------------------------------------
      1          6           0       -2.127742   -0.903134    0.054111
      2          6           0        1.143184    0.920484    0.506663
      3          6           0        1.790806   -0.326849    0.442258
      4          8           0       -2.294040    0.287325    0.269214
      5          8           0        0.082021    1.090287   -0.699346
      6          8           0        1.685631   -1.209926   -0.419337
      7          1           0       -0.845872    1.163633   -0.329551
      8          1           0       -1.193663   -1.286080   -0.393001
      9          1           0       -2.915770   -1.631060    0.310542
     10          1           0        2.507368   -0.443517    1.290619
     11          1           0        0.656177    1.263966    1.415663
     12          1           0        0.546061    1.956922   -0.755493
 ---------------------------------------------------------------------
                    Distance matrix (angstroms):
                    1          2          3          4          5
     1  C    0.000000
     2  C    3.772181   0.000000
     3  C    3.979671   1.406911   0.000000
     4  O    1.221113   3.503111   4.134382   0.000000
     5  O    3.069931   1.615351   2.496293   2.688591   0.000000
     6  O    3.854879   2.385450   1.238238   4.307394   2.817969
     7  H    2.462096   2.171341   3.125587   1.795446   1.001555
     8  H    1.104111   3.337540   3.244200   2.031000   2.714468
     9  H    1.103005   4.798328   4.885711   2.017042   4.172811
    10  H    4.819174   2.082326   1.116598   4.962954   3.492109
    11  H    3.781580   1.086939   2.183024   3.312394   2.198428
    12  H    3.998075   1.738908   2.863496   3.450181   0.984654
                    6          7          8          9         10
     6  O    0.000000
     7  H    3.471362   0.000000
     8  H    2.880421   2.475092   0.000000
     9  H    4.677924   3.536171   1.891993   0.000000
    10  H    2.046115   4.056119   4.152363   5.637485   0.000000
    11  H    3.247637   2.304776   3.632617   4.728771   2.521516
    12  H    3.382388   1.657773   3.697987   5.098462   3.714217
                   11         12
    11  H    0.000000
    12  H    2.281717   0.000000
 Symmetry turned off by external request.
 Stoichiometry    C3H6O3
 Framework group  C1[X(C3H6O3)]
 Deg. of freedom    30
 Full point group                 C1      NOp   1
 Rotational constants (GHZ):           5.1598453           1.8167487           1.5202198
 Standard basis: 6-31+G(d) (6D, 7F)
   126 basis functions,   216 primitive gaussians,   126 cartesian basis functions
    24 alpha electrons       24 beta electrons
       nuclear repulsion energy       223.6983187975 Hartrees.
 NAtoms=   12 NActive=   12 NUniq=   12 SFac= 1.00D+00 NAtFMM=   60 NAOKFM=F Big=F
 Integral buffers will be    131072 words long.
 Raffenetti 2 integral format.
 Two-electron integral symmetry is turned off.
 One-electron integrals computed using PRISM.
 NBasis=   126 RedAO= T EigKep=  1.13D-04  NBF=   126
 NBsUse=   126 1.00D-06 EigRej= -1.00D+00 NBFU=   126
 Initial guess from the checkpoint file:  "/scratch/bell/zhao922/YARP/paper-example/KHP-network/pp_0/IRC-folder/Gau-51818.chk"
 B after Tr=    -0.001080    0.000314   -0.001106
         Rot=    1.000000    0.000470   -0.000118   -0.000177 Ang=   0.06 deg.
 ExpMin= 4.38D-02 ExpMax= 5.48D+03 ExpMxC= 8.25D+02 IAcc=3 IRadAn=         5 AccDes= 0.00D+00
 Harris functional with IExCor=  402 and IRadAn=       5 diagonalized for initial guess.
 HarFok:  IExCor=  402 AccDes= 0.00D+00 IRadAn=         5 IDoV= 1 UseB2=F ITyADJ=14
 ICtDFT=  3500011 ScaDFX=  1.000000  1.000000  1.000000  1.000000
 FoFCou: FMM=F IPFlag=           0 FMFlag=      100000 FMFlg1=           0
         NFxFlg=           0 DoJE=T BraDBF=F KetDBF=T FulRan=T
         wScrn=  0.000000 ICntrl=       500 IOpCl=  0 I1Cent=   200000004 NGrid=           0
         NMat0=    1 NMatS0=      1 NMatT0=    0 NMatD0=    1 NMtDS0=    0 NMtDT0=    0
 Symmetry not used in FoFCou.
 Keep R1 ints in memory in canonical form, NReq=47237219.
 Requested convergence on RMS density matrix=1.00D-08 within 128 cycles.
 Requested convergence on MAX density matrix=1.00D-06.
 Requested convergence on             energy=1.00D-06.
 No special actions if energy rises.
 SCF Done:  E(RB3LYP) =  -343.458752813     A.U. after   12 cycles
            NFock= 12  Conv=0.27D-08     -V/T= 2.0093
 DoSCS=F DFT=T ScalE2(SS,OS)=  1.000000  1.000000
 Range of M.O.s used for correlation:     1   126
 NBasis=   126 NAE=    24 NBE=    24 NFC=     0 NFV=     0
 NROrb=    126 NOA=    24 NOB=    24 NVA=   102 NVB=   102

 **** Warning!!: The largest alpha MO coefficient is  0.28471073D+02

 Symmetrizing basis deriv contribution to polar:
 IMax=3 JMax=2 DiffMx= 0.00D+00
 G2DrvN: will do    13 centers at a time, making    1 passes.
 Calling FoFCou, ICntrl=  3107 FMM=F I1Cent=   0 AccDes= 0.00D+00.
 End of G2Drv F.D. properties file   721 does not exist.
 End of G2Drv F.D. properties file   722 does not exist.
 End of G2Drv F.D. properties file   788 does not exist.
          IDoAtm=111111111111
          Differentiating once with respect to nuclear coordinates.
 Keep R1 ints in memory in canonical form, NReq=47193255.
          There are    39 degrees of freedom in the 1st order CPHF.  IDoFFX=6 NUNeed=     0.
     33 vectors produced by pass  0 Test12= 6.28D-15 2.56D-09 XBig12= 1.47D-01 1.20D-01.
 AX will form    33 AO Fock derivatives at one time.
     33 vectors produced by pass  1 Test12= 6.28D-15 2.56D-09 XBig12= 1.95D-02 2.97D-02.
     33 vectors produced by pass  2 Test12= 6.28D-15 2.56D-09 XBig12= 2.83D-04 3.32D-03.
     33 vectors produced by pass  3 Test12= 6.28D-15 2.56D-09 XBig12= 2.08D-06 4.55D-04.
     33 vectors produced by pass  4 Test12= 6.28D-15 2.56D-09 XBig12= 2.74D-09 8.92D-06.
     29 vectors produced by pass  5 Test12= 6.28D-15 2.56D-09 XBig12= 2.77D-12 2.32D-07.
      6 vectors produced by pass  6 Test12= 6.28D-15 2.56D-09 XBig12= 2.67D-15 6.46D-09.
 InvSVY:  IOpt=1 It=  1 EMax= 1.78D-15
 Solved reduced A of dimension   200 with    33 vectors.
 End of Minotr F.D. properties file   721 does not exist.
 End of Minotr F.D. properties file   722 does not exist.
 End of Minotr F.D. properties file   788 does not exist.
 Calling FoFJK, ICntrl=    100127 FMM=F ISym2X=0 I1Cent= 0 IOpClX= 0 NMat=1 NMatS=1 NMatT=0.
 -------------------------------------------------------------------
 Center     Atomic                   Forces (Hartrees/Bohr)
 Number     Number              X              Y              Z
 -------------------------------------------------------------------
      1        6           0.000662927   -0.000365849    0.000195025
      2        6           0.004347654   -0.007920752    0.007351722
      3        6          -0.005277575   -0.000569521    0.002156300
      4        8           0.002457484    0.001353246   -0.001999126
      5        8           0.011708133    0.007940302    0.011689280
      6        8           0.001159929   -0.003626212   -0.003847017
      7        1          -0.000587172   -0.002969385   -0.001202129
      8        1           0.000042167   -0.000238003    0.000151161
      9        1          -0.000027298    0.000156304    0.000178303
     10        1          -0.000315774    0.000270370    0.000197948
     11        1           0.000566072    0.001252515   -0.000109514
     12        1          -0.014736547    0.004716984   -0.014761953
 -------------------------------------------------------------------
 Cartesian Forces:  Max     0.014761953 RMS     0.005315714
 IRC-IRC-IRC-IRC-IRC-IRC-IRC-IRC-IRC-IRC-IRC-IRC-IRC-IRC-IRC-IRC-IRC-IRC
 Pt  5 Step number   1 out of a maximum of 100
 Modified Bulirsch-Stoer Extrapolation Cycles:
    EPS =    0.000010000000000
      PEZero:  N= 2 I= 1 D=  8.19D-04 Err=  5.14D-05
      PEZero:  N= 3 I= 2 D=  8.19D-04 Err=  3.42D-05
      PEZero:  N= 3 I= 1 D=  1.64D-03 Err=  1.09D-07
 Maximum DWI energy   std dev =  0.000006677 at pt    67
 Maximum DWI gradient std dev =  0.008833166 at pt    18
 CORRECTOR INTEGRATION CONVERGENCE:
   Recorrection delta-x convergence threshold:    0.010000
   Delta-x Convergence Met
 Point Number:   5          Path Number:   1
   CHANGE IN THE REACTION COORDINATE =    0.15713
   NET REACTION COORDINATE UP TO THIS POINT =    0.78569
  # OF POINTS ALONG THE PATH =   5
  # OF STEPS =   1

 Calculating another point on the path.
 IRC-IRC-IRC-IRC-IRC-IRC-IRC-IRC-IRC-IRC-IRC-IRC-IRC-IRC-IRC-IRC-IRC-IRC
                          Input orientation:                          
 ---------------------------------------------------------------------
 Center     Atomic      Atomic             Coordinates (Angstroms)
 Number     Number       Type             X           Y           Z
 ---------------------------------------------------------------------
      1          6           0       -2.127525   -0.903263    0.054190
      2          6           0        1.144266    0.918293    0.508618
      3          6           0        1.789064   -0.327116    0.442906
      4          8           0       -2.293403    0.287652    0.268683
      5          8           0        0.084844    1.092127   -0.696298
      6          8           0        1.685930   -1.210811   -0.420281
      7          1           0       -0.848383    1.150632   -0.333969
      8          1           0       -1.193508   -1.287019   -0.392410
      9          1           0       -2.915872   -1.630429    0.311285
     10          1           0        2.505791   -0.442802    1.291544
     11          1           0        0.658978    1.269313    1.415334
     12          1           0        0.492916    1.974604   -0.809924
 ---------------------------------------------------------------------
                    Distance matrix (angstroms):
                    1          2          3          4          5
     1  C    0.000000
     2  C    3.772159   0.000000
     3  C    3.977777   1.403968   0.000000
     4  O    1.221394   3.503262   4.132170   0.000000
     5  O    3.072359   1.613820   2.493271   2.689689   0.000000
     6  O    3.855146   2.385234   1.239615   4.307570   2.818366
     7  H    2.450583   2.175910   3.121442   1.787738   1.002805
     8  H    1.104132   3.337729   3.242668   2.031355   2.717879
     9  H    1.102887   4.797879   4.883889   2.017007   4.175144
    10  H    4.817747   2.078294   1.116811   4.961056   3.488339
    11  H    3.786476   1.086671   2.184330   3.315874   2.195454
    12  H    3.986919   1.810691   2.923611   3.431148   0.978877
                    6          7          8          9         10
     6  O    0.000000
     7  H    3.465055   0.000000
     8  H    2.880581   2.462655   0.000000
     9  H    4.678446   3.524934   1.891998   0.000000
    10  H    2.047524   4.053617   4.151291   5.636115   0.000000
    11  H    3.251943   2.312203   3.637922   4.733601   2.521385
    12  H    3.423737   1.644550   3.695474   5.086571   3.783079
                   11         12
    11  H    0.000000
    12  H    2.340254   0.000000
 Symmetry turned off by external request.
 Stoichiometry    C3H6O3
 Framework group  C1[X(C3H6O3)]
 Deg. of freedom    30
 Full point group                 C1      NOp   1
 Rotational constants (GHZ):           5.1510991           1.8171901           1.5203267
 Standard basis: 6-31+G(d) (6D, 7F)
   126 basis functions,   216 primitive gaussians,   126 cartesian basis functions
    24 alpha electrons       24 beta electrons
       nuclear repulsion energy       223.6482490864 Hartrees.
 NAtoms=   12 NActive=   12 NUniq=   12 SFac= 1.00D+00 NAtFMM=   60 NAOKFM=F Big=F
 Integral buffers will be    131072 words long.
 Raffenetti 2 integral format.
 Two-electron integral symmetry is turned off.
 One-electron integrals computed using PRISM.
 NBasis=   126 RedAO= T EigKep=  1.12D-04  NBF=   126
 NBsUse=   126 1.00D-06 EigRej= -1.00D+00 NBFU=   126
 Initial guess from the checkpoint file:  "/scratch/bell/zhao922/YARP/paper-example/KHP-network/pp_0/IRC-folder/Gau-51818.chk"
 B after Tr=    -0.001062    0.000183   -0.001097
         Rot=    1.000000    0.000495   -0.000119   -0.000175 Ang=   0.06 deg.
 ExpMin= 4.38D-02 ExpMax= 5.48D+03 ExpMxC= 8.25D+02 IAcc=3 IRadAn=         5 AccDes= 0.00D+00
 Harris functional with IExCor=  402 and IRadAn=       5 diagonalized for initial guess.
 HarFok:  IExCor=  402 AccDes= 0.00D+00 IRadAn=         5 IDoV= 1 UseB2=F ITyADJ=14
 ICtDFT=  3500011 ScaDFX=  1.000000  1.000000  1.000000  1.000000
 FoFCou: FMM=F IPFlag=           0 FMFlag=      100000 FMFlg1=           0
         NFxFlg=           0 DoJE=T BraDBF=F KetDBF=T FulRan=T
         wScrn=  0.000000 ICntrl=       500 IOpCl=  0 I1Cent=   200000004 NGrid=           0
         NMat0=    1 NMatS0=      1 NMatT0=    0 NMatD0=    1 NMtDS0=    0 NMtDT0=    0
 Symmetry not used in FoFCou.
 Keep R1 ints in memory in canonical form, NReq=47237219.
 Requested convergence on RMS density matrix=1.00D-08 within 128 cycles.
 Requested convergence on MAX density matrix=1.00D-06.
 Requested convergence on             energy=1.00D-06.
 No special actions if energy rises.
 SCF Done:  E(RB3LYP) =  -343.462097394     A.U. after   12 cycles
            NFock= 12  Conv=0.28D-08     -V/T= 2.0093
 DoSCS=F DFT=T ScalE2(SS,OS)=  1.000000  1.000000
 Range of M.O.s used for correlation:     1   126
 NBasis=   126 NAE=    24 NBE=    24 NFC=     0 NFV=     0
 NROrb=    126 NOA=    24 NOB=    24 NVA=   102 NVB=   102

 **** Warning!!: The largest alpha MO coefficient is  0.27105062D+02

 Symmetrizing basis deriv contribution to polar:
 IMax=3 JMax=2 DiffMx= 0.00D+00
 G2DrvN: will do    13 centers at a time, making    1 passes.
 Calling FoFCou, ICntrl=  3107 FMM=F I1Cent=   0 AccDes= 0.00D+00.
 End of G2Drv F.D. properties file   721 does not exist.
 End of G2Drv F.D. properties file   722 does not exist.
 End of G2Drv F.D. properties file   788 does not exist.
          IDoAtm=111111111111
          Differentiating once with respect to nuclear coordinates.
 Keep R1 ints in memory in canonical form, NReq=47193255.
          There are    39 degrees of freedom in the 1st order CPHF.  IDoFFX=6 NUNeed=     0.
     33 vectors produced by pass  0 Test12= 6.28D-15 2.56D-09 XBig12= 1.47D-01 1.19D-01.
 AX will form    33 AO Fock derivatives at one time.
     33 vectors produced by pass  1 Test12= 6.28D-15 2.56D-09 XBig12= 1.99D-02 2.97D-02.
     33 vectors produced by pass  2 Test12= 6.28D-15 2.56D-09 XBig12= 2.90D-04 3.32D-03.
     33 vectors produced by pass  3 Test12= 6.28D-15 2.56D-09 XBig12= 2.19D-06 4.57D-04.
     33 vectors produced by pass  4 Test12= 6.28D-15 2.56D-09 XBig12= 2.91D-09 9.09D-06.
     29 vectors produced by pass  5 Test12= 6.28D-15 2.56D-09 XBig12= 3.02D-12 2.27D-07.
      6 vectors produced by pass  6 Test12= 6.28D-15 2.56D-09 XBig12= 2.85D-15 6.66D-09.
 InvSVY:  IOpt=1 It=  1 EMax= 1.78D-15
 Solved reduced A of dimension   200 with    33 vectors.
 End of Minotr F.D. properties file   721 does not exist.
 End of Minotr F.D. properties file   722 does not exist.
 End of Minotr F.D. properties file   788 does not exist.
 Calling FoFJK, ICntrl=    100127 FMM=F ISym2X=0 I1Cent= 0 IOpClX= 0 NMat=1 NMatS=1 NMatT=0.
 -------------------------------------------------------------------
 Center     Atomic                   Forces (Hartrees/Bohr)
 Number     Number              X              Y              Z
 -------------------------------------------------------------------
      1        6           0.000671175   -0.000409715    0.000289960
      2        6           0.002279823   -0.005348694    0.004701922
      3        6          -0.005371722   -0.001143489    0.001761389
      4        8           0.002742357    0.001304727   -0.002343151
      5        8           0.011642409    0.008609070    0.012904744
      6        8           0.001287300   -0.003565387   -0.003832315
      7        1          -0.000502420   -0.003789604   -0.001082734
      8        1           0.000036685   -0.000242244    0.000153319
      9        1          -0.000030231    0.000165714    0.000206564
     10        1          -0.000517990    0.000095088    0.000280278
     11        1           0.000906918    0.001494356   -0.000090087
     12        1          -0.013144304    0.002830178   -0.012949888
 -------------------------------------------------------------------
 Cartesian Forces:  Max     0.013144304 RMS     0.004937632
 IRC-IRC-IRC-IRC-IRC-IRC-IRC-IRC-IRC-IRC-IRC-IRC-IRC-IRC-IRC-IRC-IRC-IRC
 Pt  6 Step number   1 out of a maximum of 100
 Modified Bulirsch-Stoer Extrapolation Cycles:
    EPS =    0.000010000000000
      PEZero:  N= 2 I= 1 D=  8.19D-04 Err=  5.71D-05
      PEZero:  N= 3 I= 2 D=  8.19D-04 Err=  3.80D-05
      PEZero:  N= 3 I= 1 D=  1.64D-03 Err=  1.31D-07
 Maximum DWI energy   std dev =  0.000005346 at pt    28
 Maximum DWI gradient std dev =  0.013283744 at pt    13
 CORRECTOR INTEGRATION CONVERGENCE:
   Recorrection delta-x convergence threshold:    0.010000
   Delta-x Convergence Met
 Point Number:   6          Path Number:   1
   CHANGE IN THE REACTION COORDINATE =    0.15708
   NET REACTION COORDINATE UP TO THIS POINT =    0.94278
  # OF POINTS ALONG THE PATH =   6
  # OF STEPS =   1

 Calculating another point on the path.
 IRC-IRC-IRC-IRC-IRC-IRC-IRC-IRC-IRC-IRC-IRC-IRC-IRC-IRC-IRC-IRC-IRC-IRC
                          Input orientation:                          
 ---------------------------------------------------------------------
 Center     Atomic      Atomic             Coordinates (Angstroms)
 Number     Number       Type             X           Y           Z
 ---------------------------------------------------------------------
      1          6           0       -2.127278   -0.903436    0.054321
      2          6           0        1.144780    0.916748    0.509862
      3          6           0        1.787016   -0.327598    0.443479
      4          8           0       -2.292581    0.288010    0.267969
      5          8           0        0.087956    1.094269   -0.692505
      6          8           0        1.686306   -1.211796   -0.421348
      7          1           0       -0.850805    1.132635   -0.338272
      8          1           0       -1.193365   -1.288135   -0.391723
      9          1           0       -2.916010   -1.629670    0.312269
     10          1           0        2.503003   -0.442785    1.292998
     11          1           0        0.663648    1.276607    1.414975
     12          1           0        0.440368    1.987824   -0.863525
 ---------------------------------------------------------------------
                    Distance matrix (angstroms):
                    1          2          3          4          5
     1  C    0.000000
     2  C    3.771862   0.000000
     3  C    3.975516   1.401881   0.000000
     4  O    1.221684   3.502752   4.129514   0.000000
     5  O    3.075034   1.610614   2.489773   2.690636   0.000000
     6  O    3.855486   2.385603   1.240916   4.307681   2.818898
     7  H    2.434974   2.179059   3.114725   1.777537   1.004104
     8  H    1.104148   3.337856   3.240812   2.031674   2.721782
     9  H    1.102748   4.797218   4.881706   2.016958   4.177706
    10  H    4.815187   2.075187   1.116956   4.958061   3.483850
    11  H    3.793841   1.086377   2.186146   3.321481   2.192291
    12  H    3.974246   1.878721   2.980419   3.411548   0.975645
                    6          7          8          9         10
     6  O    0.000000
     7  H    3.455459   0.000000
     8  H    2.880835   2.445472   0.000000
     9  H    4.679116   3.509787   1.892025   0.000000
    10  H    2.048744   4.048583   4.149222   5.633492   0.000000
    11  H    3.257308   2.321243   3.645621   4.740924   2.520796
    12  H    3.462001   1.635349   3.691014   5.072872   3.848755
                   11         12
    11  H    0.000000
    12  H    2.397341   0.000000
 Symmetry turned off by external request.
 Stoichiometry    C3H6O3
 Framework group  C1[X(C3H6O3)]
 Deg. of freedom    30
 Full point group                 C1      NOp   1
 Rotational constants (GHZ):           5.1429295           1.8179951           1.5205546
 Standard basis: 6-31+G(d) (6D, 7F)
   126 basis functions,   216 primitive gaussians,   126 cartesian basis functions
    24 alpha electrons       24 beta electrons
       nuclear repulsion energy       223.6184849945 Hartrees.
 NAtoms=   12 NActive=   12 NUniq=   12 SFac= 1.00D+00 NAtFMM=   60 NAOKFM=F Big=F
 Integral buffers will be    131072 words long.
 Raffenetti 2 integral format.
 Two-electron integral symmetry is turned off.
 One-electron integrals computed using PRISM.
 NBasis=   126 RedAO= T EigKep=  1.11D-04  NBF=   126
 NBsUse=   126 1.00D-06 EigRej= -1.00D+00 NBFU=   126
 Initial guess from the checkpoint file:  "/scratch/bell/zhao922/YARP/paper-example/KHP-network/pp_0/IRC-folder/Gau-51818.chk"
 B after Tr=    -0.001036    0.000021   -0.001062
         Rot=    1.000000    0.000522   -0.000119   -0.000171 Ang=   0.06 deg.
 ExpMin= 4.38D-02 ExpMax= 5.48D+03 ExpMxC= 8.25D+02 IAcc=3 IRadAn=         5 AccDes= 0.00D+00
 Harris functional with IExCor=  402 and IRadAn=       5 diagonalized for initial guess.
 HarFok:  IExCor=  402 AccDes= 0.00D+00 IRadAn=         5 IDoV= 1 UseB2=F ITyADJ=14
 ICtDFT=  3500011 ScaDFX=  1.000000  1.000000  1.000000  1.000000
 FoFCou: FMM=F IPFlag=           0 FMFlag=      100000 FMFlg1=           0
         NFxFlg=           0 DoJE=T BraDBF=F KetDBF=T FulRan=T
         wScrn=  0.000000 ICntrl=       500 IOpCl=  0 I1Cent=   200000004 NGrid=           0
         NMat0=    1 NMatS0=      1 NMatT0=    0 NMatD0=    1 NMtDS0=    0 NMtDT0=    0
 Symmetry not used in FoFCou.
 Keep R1 ints in memory in canonical form, NReq=47237219.
 Requested convergence on RMS density matrix=1.00D-08 within 128 cycles.
 Requested convergence on MAX density matrix=1.00D-06.
 Requested convergence on             energy=1.00D-06.
 No special actions if energy rises.
 SCF Done:  E(RB3LYP) =  -343.464988805     A.U. after   12 cycles
            NFock= 12  Conv=0.28D-08     -V/T= 2.0093
 DoSCS=F DFT=T ScalE2(SS,OS)=  1.000000  1.000000
 Range of M.O.s used for correlation:     1   126
 NBasis=   126 NAE=    24 NBE=    24 NFC=     0 NFV=     0
 NROrb=    126 NOA=    24 NOB=    24 NVA=   102 NVB=   102

 **** Warning!!: The largest alpha MO coefficient is  0.25844393D+02

 Symmetrizing basis deriv contribution to polar:
 IMax=3 JMax=2 DiffMx= 0.00D+00
[...]
  11                   -0.34280   1.13308   0.66147   1.17850   1.35982
  12                   -0.34351   1.14135   0.64945   1.16957   1.36044
  13                   -0.34485   1.15011   0.63831   1.16160   1.36103
  14                   -0.34696   1.15945   0.62828   1.15490   1.36161
  15                   -0.34997   1.16948   0.61960   1.14982   1.36220
  16                   -0.35402   1.18021   0.61255   1.14671   1.36284
  17                   -0.35920   1.19160   0.60739   1.14588   1.36354
  18                   -0.36552   1.20351   0.60427   1.14752   1.36428
  19                   -0.37288   1.21571   0.60321   1.15158   1.36505
  20                   -0.38110   1.22792   0.60407   1.15784   1.36580
  21                   -0.39007   1.23989   0.60656   1.16599   1.36643
  22                   -0.40047   1.25148   0.61019   1.17592   1.36674
  23                   -0.41612   1.26287   0.61526   1.18787   1.36780
  24                   -0.43629   1.27244   0.62670   1.19891   1.37540
  25                   -0.45140   1.27849   0.64116   1.20671   1.38703
  26                   -0.46108   1.28223   0.65351   1.21266   1.39790
  27                   -0.46705   1.28465   0.66279   1.21756   1.40683
  28                   -0.47049   1.28625   0.66925   1.22175   1.41373
  29                   -0.47213   1.28731   0.67339   1.22539   1.41883
  30                   -0.47249   1.28800   0.67571   1.22859   1.42239
  31                   -0.47192   1.28843   0.67664   1.23141   1.42469
  32                   -0.47068   1.28869   0.67650   1.23391   1.42598
  33                   -0.46900   1.28883   0.67558   1.23615   1.42649
  34                   -0.46702   1.28890   0.67408   1.23818   1.42640
  35                   -0.46489   1.28893   0.67221   1.24004   1.42588
  36                   -0.46271   1.28895   0.67009   1.24177   1.42506
  37                   -0.46054   1.28897   0.66785   1.24341   1.42406
  38                   -0.45842   1.28901   0.66557   1.24501   1.42296
  39                   -0.45635   1.28906   0.66330   1.24660   1.42181
  40                   -0.45431   1.28914   0.66110   1.24825   1.42065
  41                   -0.45228   1.28923   0.65906   1.25005   1.41953
  42                   -0.45024   1.28934   0.65712   1.25194   1.41847
  43                   -0.44824   1.28948   0.65562   1.25415   1.41752
  44                   -0.44638   1.28970   0.65480   1.25675   1.41672
  45                   -0.44477   1.29005   0.65492   1.25994   1.41611
  46                   -0.44353   1.29063   0.65623   1.26399   1.41567
  47                   -0.44282   1.29156   0.65903   1.26934   1.41533
  48                   -0.44280   1.29301   0.66370   1.27663   1.41496
  49                   -0.44371   1.29525   0.67086   1.28681   1.41429
  50                   -0.44579   1.29862   0.68150   1.30123   1.41282
  51                   -0.44914   1.30348   0.69704   1.32134   1.40981
  52                   -0.45340   1.30977   0.71854   1.34738   1.40455
  53                   -0.45774   1.31665   0.74533   1.37724   1.39701
  54                   -0.46154   1.32287   0.77540   1.40807   1.38783
  55                   -0.46451   1.32739   0.80679   1.43789   1.37786
  56                   -0.46643   1.32940   0.83761   1.46516   1.36807
  57                   -0.46712   1.32850   0.86611   1.48864   1.35934
  58                   -0.46679   1.32501   0.89134   1.50796   1.35213
  59                   -0.46592   1.31972   0.91339   1.52366   1.34636
  60                   -0.46508   1.31349   0.93287   1.53663   1.34169
  61                   -0.46463   1.30696   0.95044   1.54763   1.33777
  62                   -0.46471   1.30050   0.96654   1.55719   1.33436
  63                   -0.46533   1.29428   0.98150   1.56564   1.33130
  64                   -0.46640   1.28834   0.99554   1.57325   1.32848
  65                   -0.46786   1.28268   1.00883   1.58020   1.32581
  66                   -0.46961   1.27727   1.02154   1.58664   1.32323
  67                   -0.47160   1.27206   1.03378   1.59270   1.32068
  68                   -0.47376   1.26702   1.04564   1.59845   1.31811
  69                   -0.47604   1.26212   1.05723   1.60399   1.31550
  70                   -0.47844   1.25733   1.06859   1.60937   1.31280
  71                   -0.48090   1.25265   1.07978   1.61462   1.31001
  72                   -0.48343   1.24804   1.09085   1.61979   1.30709
  73                   -0.48600   1.24350   1.10183   1.62488   1.30405
  74                   -0.48860   1.23902   1.11275   1.62992   1.30087
  75                   -0.49123   1.23458   1.12363   1.63492   1.29754
  76                   -0.49388   1.23019   1.13449   1.63990   1.29407
  77                   -0.49655   1.22583   1.14536   1.64484   1.29043
  78                   -0.49922   1.22151   1.15624   1.64977   1.28663
  79                   -0.50191   1.21721   1.16717   1.65468   1.28266
  80                   -0.50460   1.21293   1.17815   1.65959   1.27852
  81                   -0.50728   1.20868   1.18920   1.66448   1.27420
                          X12       Y12       Z12
   1                    1.97068   1.80859   0.14320
   2                    1.96077   1.80951   0.15470
   3                    1.95075   1.81029   0.16615
   4                    1.94064   1.81090   0.17750
   5                    1.93046   1.81135   0.18872
   6                    1.92023   1.81163   0.19977
   7                    1.90999   1.81173   0.21058
   8                    1.89978   1.81163   0.22107
   9                    1.88964   1.81131   0.23115
  10                    1.87964   1.81076   0.24068
  11                    1.86986   1.80995   0.24951
  12                    1.86040   1.80886   0.25742
  13                    1.85138   1.80746   0.26416
  14                    1.84296   1.80571   0.26944
  15                    1.83531   1.80361   0.27290
  16                    1.82861   1.80112   0.27420
  17                    1.82303   1.79826   0.27306
  18                    1.81865   1.79506   0.26932
  19                    1.81546   1.79157   0.26304
  20                    1.81333   1.78783   0.25445
  21                    1.81210   1.78383   0.24386
  22                    1.81135   1.77955   0.23134
  23                    1.80927   1.77631   0.21610
  24                    1.79864   1.78024   0.19500
  25                    1.77483   1.79270   0.16625
  26                    1.74040   1.80872   0.13199
  27                    1.69783   1.82485   0.09440
  28                    1.64883   1.83915   0.05509
  29                    1.59469   1.85057   0.01516
  30                    1.53648   1.85868  -0.02473
  31                    1.47516   1.86351  -0.06428
  32                    1.41158   1.86550  -0.10353
  33                    1.34655   1.86540  -0.14279
  34                    1.28078   1.86420  -0.18257
  35                    1.21488   1.86282  -0.22340
  36                    1.14929   1.86192  -0.26559
  37                    1.08424   1.86178  -0.30919
  38                    1.01977   1.86241  -0.35402
  39                    0.95587   1.86390  -0.39992
  40                    0.89262   1.86678  -0.44681
  41                    0.83044   1.87258  -0.49503
  42                    0.76948   1.88153  -0.54433
  43                    0.71077   1.89602  -0.59531
  44                    0.65440   1.91508  -0.64774
  45                    0.59975   1.93618  -0.70127
  46                    0.54598   1.95647  -0.75551
  47                    0.49271   1.97379  -0.80985
  48                    0.44011   1.98670  -0.86335
  49                    0.38894   1.99441  -0.91448
  50                    0.34081   1.99678  -0.96089
  51                    0.29855   1.99460  -0.99915
  52                    0.26577   1.98975  -1.02597
  53                    0.24368   1.98443  -1.04162
  54                    0.22955   1.97978  -1.05018
  55                    0.21991   1.97611  -1.05543
  56                    0.21260   1.97377  -1.05895
  57                    0.20664   1.97326  -1.06073
  58                    0.20164   1.97491  -1.06036
  59                    0.19738   1.97869  -1.05781
  60                    0.19369   1.98418  -1.05351
  61                    0.19045   1.99089  -1.04803
  62                    0.18755   1.99837  -1.04185
  63                    0.18490   2.00630  -1.03528
  64                    0.18241   2.01447  -1.02853
  65                    0.18004   2.02273  -1.02171
  66                    0.17775   2.03102  -1.01486
  67                    0.17552   2.03928  -1.00804
  68                    0.17331   2.04748  -1.00124
  69                    0.17113   2.05560  -0.99449
  70                    0.16896   2.06364  -0.98777
  71                    0.16679   2.07159  -0.98109
  72                    0.16463   2.07944  -0.97444
  73                    0.16246   2.08721  -0.96782
  74                    0.16029   2.09489  -0.96121
  75                    0.15809   2.10250  -0.95460
  76                    0.15587   2.11004  -0.94798
  77                    0.15361   2.11752  -0.94132
  78                    0.15132   2.12495  -0.93461
  79                    0.14897   2.13235  -0.92782
  80                    0.14656   2.13972  -0.92093
  81                    0.14407   2.14710  -0.91391
 --------------------------------------------------------------------------
 
 Total number of points:                   80
 Total number of gradient calculations:    81
 Total number of Hessian calculations:     81
 IRC-IRC-IRC-IRC-IRC-IRC-IRC-IRC-IRC-IRC-IRC-IRC-IRC-IRC-IRC-IRC-IRC-IRC
                          Input orientation:                          
 ---------------------------------------------------------------------
 Center     Atomic      Atomic             Coordinates (Angstroms)
 Number     Number       Type             X           Y           Z
 ---------------------------------------------------------------------
      1          6           0       -2.232189   -1.026942    0.001029
      2          6           0        1.167744    1.077754    0.325379
      3          6           0        1.824090   -0.291401    0.359572
      4          8           0       -2.258781    0.151896    0.300238
      5          8           0        0.185010    1.254879   -0.653165
      6          8           0        1.482626   -1.259420   -0.285486
      7          1           0       -0.681245    0.952507   -0.314971
      8          1           0       -1.348395   -1.481035   -0.481321
      9          1           0       -3.096616   -1.683692    0.207490
     10          1           0        2.689418   -0.354518    1.060520
     11          1           0        0.803055    1.284112    1.349296
     12          1           0        1.970720    1.808633    0.143205
 ---------------------------------------------------------------------
                    Distance matrix (angstroms):
                    1          2          3          4          5
     1  C    0.000000
     2  C    4.011794   0.000000
     3  C    4.137991   1.518731   0.000000
     4  O    1.216508   3.549496   4.107294   0.000000
     5  O    3.387849   1.398102   2.470466   2.845639   0.000000
     6  O    3.733093   2.436123   1.212336   4.041413   2.853191
     7  H    2.534462   1.960739   2.877328   1.872987   0.977855
     8  H    1.104515   3.678196   3.490988   2.026352   3.141033
     9  H    1.105071   5.081757   5.116146   2.019889   4.488318
    10  H    5.079064   2.215249   1.115394   5.031815   3.434958
    11  H    4.046171   1.106340   2.122335   3.428889   2.095873
    12  H    5.071996   1.100974   2.116237   4.545120   2.032144
                    6          7          8          9         10
     6  O    0.000000
     7  H    3.094484   0.000000
     8  H    2.846427   2.528812   0.000000
     9  H    4.625202   3.613382   1.889922   0.000000
    10  H    2.021615   3.868031   4.466571   5.997712   0.000000
    11  H    3.099014   2.254528   3.952966   5.031801   2.515326
    12  H    3.136075   2.824145   4.714709   6.154540   2.457075
                   11         12
    11  H    0.000000
    12  H    1.758755   0.000000
 Symmetry turned off by external request.
 Stoichiometry    C3H6O3
 Framework group  C1[X(C3H6O3)]
 Deg. of freedom    30
 Full point group                 C1      NOp   1
 Rotational constants (GHZ):           4.8584312           1.8428336           1.4568504

 **********************************************************************

            Population analysis using the SCF Density.

 **********************************************************************

 Alpha  occ. eigenvalues --  -19.20899 -19.17207 -19.15526 -10.31658 -10.29149
 Alpha  occ. eigenvalues --  -10.25603  -1.09503  -1.06629  -1.02714  -0.74413
 Alpha  occ. eigenvalues --   -0.66391  -0.59408  -0.53698  -0.51434  -0.49967
 Alpha  occ. eigenvalues --   -0.48368  -0.46306  -0.43891  -0.43042  -0.39387
 Alpha  occ. eigenvalues --   -0.34559  -0.30562  -0.30246  -0.26215
 Alpha virt. eigenvalues --   -0.08147  -0.04140   0.00273   0.01149   0.02756
 Alpha virt. eigenvalues --    0.03621   0.04276   0.04896   0.06697   0.08125
 Alpha virt. eigenvalues --    0.08735   0.09842   0.10609   0.13612   0.14990
 Alpha virt. eigenvalues --    0.16685   0.17955   0.18661   0.20234   0.21759
 Alpha virt. eigenvalues --    0.22975   0.23614   0.23749   0.25272   0.26569
 Alpha virt. eigenvalues --    0.26945   0.28903   0.29191   0.30184   0.30818
 Alpha virt. eigenvalues --    0.33118   0.34105   0.36818   0.37906   0.41429
 Alpha virt. eigenvalues --    0.47071   0.62517   0.64567   0.65637   0.65754
 Alpha virt. eigenvalues --    0.68510   0.75080   0.76132   0.77956   0.79572
 Alpha virt. eigenvalues --    0.90295   0.92225   0.93326   0.95438   1.04801
 Alpha virt. eigenvalues --    1.06221   1.08092   1.12835   1.17010   1.18346
 Alpha virt. eigenvalues --    1.19634   1.21779   1.24682   1.25865   1.27520
 Alpha virt. eigenvalues --    1.30352   1.33845   1.41365   1.46532   1.47968
 Alpha virt. eigenvalues --    1.49537   1.53176   1.54554   1.56014   1.61396
 Alpha virt. eigenvalues --    1.65204   1.71048   1.75053   1.77841   1.80908
 Alpha virt. eigenvalues --    1.82127   1.87843   1.91390   1.99665   2.03147
 Alpha virt. eigenvalues --    2.07908   2.14918   2.21809   2.26631   2.31629
 Alpha virt. eigenvalues --    2.34582   2.44263   2.50455   2.51055   2.57761
 Alpha virt. eigenvalues --    2.60572   2.63239   2.85821   2.92642   2.95074
 Alpha virt. eigenvalues --    3.07520   4.06841   4.09523   4.17043   4.21672
 Alpha virt. eigenvalues --    4.27508   4.46916
          Condensed to atoms (all electrons):
               1          2          3          4          5          6
     1  C    4.911603  -0.001672  -0.002354   0.386459   0.000943  -0.002810
     2  C   -0.001672   5.594955  -0.019445   0.034574   0.178290  -0.142153
     3  C   -0.002354  -0.019445   5.145288  -0.020612  -0.069475   0.502543
     4  O    0.386459   0.034574  -0.020612   8.047680  -0.028966   0.003120
     5  O    0.000943   0.178290  -0.069475  -0.028966   8.486854   0.017192
     6  O   -0.002810  -0.142153   0.502543   0.003120   0.017192   8.062921
     7  H   -0.005617  -0.017029  -0.003092   0.051950   0.173312  -0.000159
     8  H    0.368206  -0.007933   0.006961  -0.064978   0.006492  -0.000418
     9  H    0.358404   0.001647  -0.001297  -0.062233  -0.000808   0.000497
    10  H    0.000278  -0.120214   0.373063   0.000069   0.009543  -0.072075
    11  H    0.000324   0.389032  -0.061606   0.000858  -0.046166  -0.000167
    12  H    0.000339   0.422095  -0.076278  -0.000241  -0.053841   0.000760
               7          8          9         10         11         12
     1  C   -0.005617   0.368206   0.358404   0.000278   0.000324   0.000339
     2  C   -0.017029  -0.007933   0.001647  -0.120214   0.389032   0.422095
     3  C   -0.003092   0.006961  -0.001297   0.373063  -0.061606  -0.076278
     4  O    0.051950  -0.064978  -0.062233   0.000069   0.000858  -0.000241
     5  O    0.173312   0.006492  -0.000808   0.009543  -0.046166  -0.053841
     6  O   -0.000159  -0.000418   0.000497  -0.072075  -0.000167   0.000760
     7  H    0.270197  -0.003715   0.000734  -0.000110  -0.006212   0.004568
     8  H   -0.003715   0.548008  -0.066304   0.000029  -0.000039   0.000008
     9  H    0.000734  -0.066304   0.592766   0.000000   0.000006  -0.000000
    10  H   -0.000110   0.000029   0.000000   0.649473   0.004937   0.004376
    11  H   -0.006212  -0.000039   0.000006   0.004937   0.553210  -0.036008
    12  H    0.004568   0.000008  -0.000000   0.004376  -0.036008   0.521883
 Mulliken charges:
               1
     1  C   -0.014104
     2  C   -0.312147
     3  C    0.226305
     4  O   -0.347678
     5  O   -0.673369
     6  O   -0.369251
     7  H    0.535173
     8  H    0.213683
     9  H    0.176588
    10  H    0.150631
    11  H    0.201831
    12  H    0.212339
 Sum of Mulliken charges =  -0.00000
 Mulliken charges with hydrogens summed into heavy atoms:
               1
     1  C    0.376167
     2  C    0.102022
     3  C    0.376937
     4  O   -0.347678
     5  O   -0.138196
     6  O   -0.369251
 APT charges:
               1
     1  C   -0.379421
     2  C   -0.860143
     3  C   -0.096496
     4  O   -0.450722
     5  O   -0.639836
     6  O   -0.411738
     7  H    0.512304
     8  H    0.182968
     9  H    0.679667
    10  H    0.498127
    11  H    0.377129
    12  H    0.588162
 Sum of APT charges =  -0.00000
 APT charges with hydrogens summed into heavy atoms:
               1
     1  C    0.483214
     2  C    0.105148
     3  C    0.401631
     4  O   -0.450722
     5  O   -0.127533
     6  O   -0.411738
 Electronic spatial extent (au):  <R**2>=            793.5966
 Charge=             -0.0000 electrons
 Dipole moment (field-independent basis, Debye):
    X=             -0.5590    Y=             -1.0605    Z=              2.2382  Tot=              2.5391
 Quadrupole moment (field-independent basis, Debye-Ang):
   XX=            -30.8649   YY=            -38.1025   ZZ=            -37.1018
   XY=              9.5344   XZ=              4.1222   YZ=              1.1897
 Traceless Quadrupole moment (field-independent basis, Debye-Ang):
   XX=              4.4915   YY=             -2.7461   ZZ=             -1.7454
   XY=              9.5344   XZ=              4.1222   YZ=              1.1897
 Octapole moment (field-independent basis, Debye-Ang**2):
  XXX=             -0.7062  YYY=             -2.3448  ZZZ=             -1.7142  XYY=            -11.6368
  XXY=             -7.7054  XXZ=             -2.3431  XZZ=             -1.4234  YZZ=             -2.1994
  YYZ=              2.9809  XYZ=             -0.3842
 Hexadecapole moment (field-independent basis, Debye-Ang**3):
 XXXX=           -638.7870 YYYY=           -271.6235 ZZZZ=            -79.7929 XXXY=             14.8233
 XXXZ=              8.3186 YYYX=            -13.7680 YYYZ=              3.3924 ZZZX=             -4.2588
 ZZZY=              1.8866 XXYY=           -142.3349 XXZZ=           -124.0929 YYZZ=            -58.9504
 XXYZ=             -7.0188 YYXZ=             -0.2689 ZZXY=            -11.6877
 N-N= 2.227588565736D+02 E-N=-1.250265130096D+03  KE= 3.403996939738D+02
  Exact polarizability:   0.000   0.000   0.000   0.000   0.000   0.000
 Approx polarizability:  60.695   4.443  80.312   4.619  12.388  56.257

 This type of calculation cannot be archived.


 Time has a wonderful way of weeding out the trivial.
                                -- Richard Ben Sapir
 Job cpu time:       0 days  5 hours 33 minutes 39.1 seconds.
 Elapsed time:       0 days  0 hours 21 minutes 22.4 seconds.
 File lengths (MBytes):  RWF=     28 Int=      0 D2E=      0 Chk=      4 Scr=      1
 Normal termination of Gaussian 16 at Wed Dec 23 22:38:22 2020.
