 Entering Gaussian System, Link 0=g16
 Initial command:
 /apps/cent7/gaussian/g16-B.01/g16-haswell/g16/l1.exe "/scratch/bell/zhao922/YARP/paper-example/KHP-network/pp_0/IRC-folder/Gau-52164.inp" -scrdir="/scratch/bell/zhao922/YARP/paper-example/KHP-network/pp_0/IRC-folder/"
 Entering Link 1 = /apps/cent7/gaussian/g16-B.01/g16-haswell/g16/l1.exe PID=     52167.
  
 Copyright (c) 1988-2017, Gaussian, Inc.  All Rights Reserved.
  
 This is part of the Gaussian(R) 16 program.  It is based on
 the Gaussian(R) 09 system (copyright 2009, Gaussian, Inc.),
 the Gaussian(R) 03 system (copyright 2003, Gaussian, Inc.),
 the Gaussian(R) 98 system (copyright 1998, Gaussian, Inc.),
 the Gaussian(R) 94 system (copyright 1995, Gaussian, Inc.),
 the Gaussian 92(TM) system (copyright 1992, Gaussian, Inc.),
 the Gaussian 90(TM) system (copyright 1990, Gaussian, Inc.),
 the Gaussian 88(TM) system (copyright 1988, Gaussian, Inc.),
 the Gaussian 86(TM) system (copyright 1986, Carnegie Mellon
 University), and the Gaussian 82(TM) system (copyright 1983,
 Carnegie Mellon University). Gaussian is a federally registered
 trademark of Gaussian, Inc.
  
 This software contains proprietary and confidential information,
 including trade secrets, belonging to Gaussian, Inc.
  
 This software is provided under written license and may be
 used, copied, transmitted, or stored only in accord with that
 written license.
  
 The following legend is applicable only to US Government
 contracts under FAR:
  
                    RESTRICTED RIGHTS LEGEND
  
 Use, reproduction and disclosure by the US Government is
 subject to restrictions as set forth in subparagraphs (a)
 and (c) of the Commercial Computer Software - Restricted
 Rights clause in FAR 52.227-19.
  
 Gaussian, Inc.
 340 Quinnipiac St., Bldg. 40, Wallingford CT 06492
  
  
 ---------------------------------------------------------------
 Warning -- This program may not be used in any manner that
 competes with the business of Gaussian, Inc. or will provide
 assistance to any competitor of Gaussian, Inc.  The licensee
 of this program is prohibited from giving any competitor of
 Gaussian, Inc. access to this program.  By using this program,
 the user acknowledges that Gaussian, Inc. is engaged in the
 business of creating and licensing software in the field of
 computational chemistry and represents and warrants to the
 licensee that it is not a competitor of Gaussian, Inc. and that
 it will not use this program in any manner prohibited above.
 ---------------------------------------------------------------
  

 Cite this work as:
 Gaussian 16, Revision B.01,
 M. J. Frisch, G. W. Trucks, H. B. Schlegel, G. E. Scuseria, 
 M. A. Robb, J. R. Cheeseman, G. Scalmani, V. Barone, 
 G. A. Petersson, H. Nakatsuji, X. Li, M. Caricato, A. V. Marenich, 
 J. Bloino, B. G. Janesko, R. Gomperts, B. Mennucci, H. P. Hratchian, 
 J. V. Ortiz, A. F. Izmaylov, J. L. Sonnenberg, D. Williams-Young, 
 F. Ding, F. Lipparini, F. Egidi, J. Goings, B. Peng, A. Petrone, 
 T. Henderson, D. Ranasinghe, V. G. Zakrzewski, J. Gao, N. Rega, 
 G. Zheng, W. Liang, M. Hada, M. Ehara, K. Toyota, R. Fukuda, 
 J. Hasegawa, M. Ishida, T. Nakajima, Y. Honda, O. Kitao, H. Nakai, 
 T. Vreven, K. Throssell, J. A. Montgomery, Jr., J. E. Peralta, 
 F. Ogliaro, M. J. Bearpark, J. J. Heyd, E. N. Brothers, K. N. Kudin, 
 V. N. Staroverov, T. A. Keith, R. Kobayashi, J. Normand, 
 K. Raghavachari, A. P. Rendell, J. C. Burant, S. S. Iyengar, 
 J. Tomasi, M. Cossi, J. M. Millam, M. Klene, C. Adamo, R. Cammi, 
 J. W. Ochterski, R. L. Martin, K. Morokuma, O. Farkas, 
 J. B. Foresman, and D. J. Fox, Gaussian, Inc., Wallingford CT, 2016.
 
 ******************************************
 Gaussian 16:  ES64L-G16RevB.01 20-Dec-2017
                23-Dec-2020 
 ******************************************
 %NProcShared=16
 Will use up to   16 processors via shared memory.
 %Mem=6GB
 ----------------------------------------------------------------------
 # B3LYP/6-31+G* IRC=(CALCALL, maxpoints=40, StepSize=15, maxcyc=100, R
 eport=Cartesians)
 ----------------------------------------------------------------------
 1/6=100,10=4,18=10,26=3,38=1,39=15,42=40,44=3,71=1,129=10,172=1/1,23;
 2/12=2,17=6,18=5,29=1,40=1/2;
 3/5=1,6=6,7=11,11=2,25=1,30=1,71=2,74=-5,140=1/1,2,3;
 4//1;
 5/5=2,38=5/2;
 8/6=4,10=90,11=11/1;
 11/6=1,8=1,9=11,15=111,16=1/1,2,10;
 10/6=1,13=1/2;
 6/7=2,8=2,9=2,10=2,18=1,28=1/1;
 7/10=1,25=1/1,2,3,16;
 1/6=100,10=4,18=10,26=3,39=15,42=40,44=3,71=1,129=10/23(2);
 2/29=1/2;
 99/5=20/99;
 2/29=1/2;
 3/5=1,6=6,7=11,11=2,25=1,30=1,71=2,74=-5,140=1/1,2,3;
 4/5=5,16=3,69=1/1;
 5/5=2,38=5/2;
 8/6=4,10=90,11=11/1;
 11/6=1,8=1,9=11,15=111,16=1/1,2,10;
 10/6=1,13=1/2;
 7/10=1,25=1/1,2,3,16;
 1/6=100,10=4,18=10,26=3,39=15,42=40,44=3,71=1,129=10/23(-8);
 2/29=1/2;
 6/7=2,8=2,9=2,10=2,18=1,19=2,28=1/1;
 99/5=20/99;
 ----------
 pp_5_0 IRC
 ----------
 Symbolic Z-matrix:
 Charge =  0 Multiplicity = 1
 C                     0.72107   0.41034  -0.09068 
 C                    -0.88574  -0.95889  -0.21842 
 C                    -1.86221  -0.05088   0.41033 
 O                     1.23647  -0.75844   0.03692 
 O                     2.71939   0.50045  -0.04801 
 O                    -2.49375   0.79577  -0.20502 
 H                     2.99449   0.49244   0.8901 
 H                     0.57927   0.86515  -1.07374 
 H                     0.48842   1.0238    0.78448 
 H                    -1.99435  -0.16737   1.50503 
 H                    -0.68368  -1.8825    0.31735 
 H                    -0.91983  -1.03719  -1.30167 
 
 IRC-IRC-IRC-IRC-IRC-IRC-IRC-IRC-IRC-IRC-IRC-IRC-IRC-IRC-IRC-IRC-IRC-IRC
 ------------------------------------------------------------------------
 INPUT DATA FOR L123
 ------------------------------------------------------------------------
 GENERAL PARAMETERS:
 Follow reaction path in both directions.
 Maximum points per path      =  40
 Step size                    =   0.150 bohr
 Integration scheme           = HPC                                 
    Redo corrector integration= Yes                                 
    DWI Weight Power          =  2
    DWI will use Hessian update vectors when possible.
    Max correction cycles     = 100
 Initial Hessian              = CalcFC
 Hessian evaluation           = Analytic at all predictor steps
                              = Update at all corrector steps
 Hessian updating method      = Bofill                              
 ------------------------------------------------------------------------
 IRC-IRC-IRC-IRC-IRC-IRC-IRC-IRC-IRC-IRC-IRC-IRC-IRC-IRC-IRC-IRC-IRC-IRC
                          Input orientation:                          
 ---------------------------------------------------------------------
 Center     Atomic      Atomic             Coordinates (Angstroms)
 Number     Number       Type             X           Y           Z
 ---------------------------------------------------------------------
      1          6           0        0.721073    0.410340   -0.090681
      2          6           0       -0.885735   -0.958887   -0.218424
      3          6           0       -1.862208   -0.050883    0.410332
      4          8           0        1.236469   -0.758435    0.036920
      5          8           0        2.719391    0.500449   -0.048010
      6          8           0       -2.493747    0.795766   -0.205022
      7          1           0        2.994489    0.492441    0.890096
      8          1           0        0.579271    0.865151   -1.073742
      9          1           0        0.488416    1.023796    0.784481
     10          1           0       -1.994345   -0.167373    1.505027
     11          1           0       -0.683682   -1.882495    0.317346
     12          1           0       -0.919829   -1.037190   -1.301668
 ---------------------------------------------------------------------
                    Distance matrix (angstroms):
                    1          2          3          4          5
     1  C    0.000000
     2  C    2.114931   0.000000
     3  C    2.671532   1.474213   0.000000
     4  O    1.283725   2.146889   3.200291   0.000000
     5  O    2.000804   3.893024   4.637358   1.947064   0.000000
     6  O    3.239860   2.380061   1.222422   4.048282   5.223856
     7  H    2.477314   4.288509   4.910487   2.320180   0.977643
     8  H    1.092415   2.490969   3.000402   2.074008   2.401093
     9  H    1.093785   2.612497   2.611581   2.072385   2.438069
    10  H    3.202114   2.196769   1.108777   3.597617   5.007716
    11  H    2.719727   1.086704   2.179994   2.242572   4.170469
    12  H    2.500878   1.086605   2.189023   2.553261   4.144866
                    6          7          8          9         10
     6  O    0.000000
     7  H    5.604643   0.000000
     8  H    3.194202   3.135100   0.000000
     9  H    3.150303   2.563961   1.867195   0.000000
    10  H    2.025168   5.069710   3.786774   2.846432   0.000000
    11  H    3.274490   4.415575   3.328624   3.168368   2.463751
    12  H    2.653220   4.739777   2.432725   3.253127   3.128690
                   11         12
    11  H    0.000000
    12  H    1.841606   0.000000
 Symmetry turned off by external request.
 Stoichiometry    C3H6O3
 Framework group  C1[X(C3H6O3)]
 Deg. of freedom    30
 Full point group                 C1      NOp   1
 Rotational constants (GHZ):           9.5098081           1.5570553           1.4132769
 Standard basis: 6-31+G(d) (6D, 7F)
   126 basis functions,   216 primitive gaussians,   126 cartesian basis functions
    24 alpha electrons       24 beta electrons
       nuclear repulsion energy       227.0204282836 Hartrees.
 NAtoms=   12 NActive=   12 NUniq=   12 SFac= 1.00D+00 NAtFMM=   60 NAOKFM=F Big=F
 Integral buffers will be    131072 words long.
 Raffenetti 2 integral format.
 Two-electron integral symmetry is turned off.
 One-electron integrals computed using PRISM.
 NBasis=   126 RedAO= T EigKep=  1.63D-04  NBF=   126
 NBsUse=   126 1.00D-06 EigRej= -1.00D+00 NBFU=   126
 ExpMin= 4.38D-02 ExpMax= 5.48D+03 ExpMxC= 8.25D+02 IAcc=3 IRadAn=         5 AccDes= 0.00D+00
 Harris functional with IExCor=  402 and IRadAn=       5 diagonalized for initial guess.
 HarFok:  IExCor=  402 AccDes= 0.00D+00 IRadAn=         5 IDoV= 1 UseB2=F ITyADJ=14
 ICtDFT=  3500011 ScaDFX=  1.000000  1.000000  1.000000  1.000000
 FoFCou: FMM=F IPFlag=           0 FMFlag=      100000 FMFlg1=           0
         NFxFlg=           0 DoJE=T BraDBF=F KetDBF=T FulRan=T
         wScrn=  0.000000 ICntrl=       500 IOpCl=  0 I1Cent=   200000004 NGrid=           0
         NMat0=    1 NMatS0=      1 NMatT0=    0 NMatD0=    1 NMtDS0=    0 NMtDT0=    0
 Symmetry not used in FoFCou.
 Keep R1 ints in memory in canonical form, NReq=47237219.
 Requested convergence on RMS density matrix=1.00D-08 within 128 cycles.
 Requested convergence on MAX density matrix=1.00D-06.
 Requested convergence on             energy=1.00D-06.
 No special actions if energy rises.
 EnCoef did     1 forward-backward iterations
 EnCoef did     3 forward-backward iterations
 SCF Done:  E(RB3LYP) =  -343.390960113     A.U. after   16 cycles
            NFock= 16  Conv=0.42D-08     -V/T= 2.0092
 DoSCS=F DFT=T ScalE2(SS,OS)=  1.000000  1.000000
 Range of M.O.s used for correlation:     1   126
 NBasis=   126 NAE=    24 NBE=    24 NFC=     0 NFV=     0
 NROrb=    126 NOA=    24 NOB=    24 NVA=   102 NVB=   102

 **** Warning!!: The largest alpha MO coefficient is  0.31625358D+02

 Symmetrizing basis deriv contribution to polar:
 IMax=3 JMax=2 DiffMx= 0.00D+00
 G2DrvN: will do    13 centers at a time, making    1 passes.
 Calling FoFCou, ICntrl=  3107 FMM=F I1Cent=   0 AccDes= 0.00D+00.
 End of G2Drv F.D. properties file   721 does not exist.
 End of G2Drv F.D. properties file   722 does not exist.
 End of G2Drv F.D. properties file   788 does not exist.
          IDoAtm=111111111111
          Differentiating once with respect to nuclear coordinates.
 Keep R1 ints in memory in canonical form, NReq=47193241.
          There are    39 degrees of freedom in the 1st order CPHF.  IDoFFX=6 NUNeed=     0.
     33 vectors produced by pass  0 Test12= 6.28D-15 2.56D-09 XBig12= 4.32D-01 4.53D-01.
 AX will form    33 AO Fock derivatives at one time.
     33 vectors produced by pass  1 Test12= 6.28D-15 2.56D-09 XBig12= 2.36D-01 1.42D-01.
     33 vectors produced by pass  2 Test12= 6.28D-15 2.56D-09 XBig12= 2.90D-03 9.49D-03.
     33 vectors produced by pass  3 Test12= 6.28D-15 2.56D-09 XBig12= 2.05D-05 7.64D-04.
     33 vectors produced by pass  4 Test12= 6.28D-15 2.56D-09 XBig12= 3.65D-08 2.36D-05.
     31 vectors produced by pass  5 Test12= 6.28D-15 2.56D-09 XBig12= 3.19D-11 7.80D-07.
      4 vectors produced by pass  6 Test12= 6.28D-15 2.56D-09 XBig12= 3.15D-14 2.61D-08.
 InvSVY:  IOpt=1 It=  1 EMax= 2.44D-15
 Solved reduced A of dimension   200 with    33 vectors.
 End of Minotr F.D. properties file   721 does not exist.
 End of Minotr F.D. properties file   722 does not exist.
 End of Minotr F.D. properties file   788 does not exist.

 **********************************************************************

            Population analysis using the SCF Density.

 **********************************************************************

 Alpha  occ. eigenvalues --  -19.24970 -19.18279 -19.17112 -10.33594 -10.30924
 Alpha  occ. eigenvalues --  -10.26000  -1.10542  -1.07261  -0.95136  -0.77865
 Alpha  occ. eigenvalues --   -0.68377  -0.61125  -0.53711  -0.51553  -0.49729
 Alpha  occ. eigenvalues --   -0.49079  -0.46853  -0.43681  -0.42550  -0.40100
 Alpha  occ. eigenvalues --   -0.32813  -0.31235  -0.29186  -0.26212
 Alpha virt. eigenvalues --   -0.15382  -0.05586  -0.01678  -0.00060   0.01778
 Alpha virt. eigenvalues --    0.01971   0.02992   0.05183   0.06103   0.07200
 Alpha virt. eigenvalues --    0.07333   0.08214   0.11140   0.11715   0.13674
 Alpha virt. eigenvalues --    0.15826   0.17930   0.18612   0.18865   0.22511
 Alpha virt. eigenvalues --    0.22550   0.23234   0.23791   0.24461   0.25234
 Alpha virt. eigenvalues --    0.26195   0.26413   0.27647   0.29109   0.30151
 Alpha virt. eigenvalues --    0.31320   0.33433   0.36009   0.37107   0.38870
 Alpha virt. eigenvalues --    0.42619   0.59223   0.61816   0.64750   0.65949
 Alpha virt. eigenvalues --    0.70855   0.75764   0.77520   0.82712   0.83951
 Alpha virt. eigenvalues --    0.88942   0.91586   0.93576   0.99962   1.02408
 Alpha virt. eigenvalues --    1.05870   1.07386   1.12148   1.13813   1.16588
 Alpha virt. eigenvalues --    1.19888   1.20565   1.22115   1.23917   1.25863
 Alpha virt. eigenvalues --    1.27453   1.28552   1.35319   1.39196   1.45858
 Alpha virt. eigenvalues --    1.50117   1.54420   1.58410   1.61368   1.67591
 Alpha virt. eigenvalues --    1.70241   1.72929   1.77816   1.79497   1.80219
 Alpha virt. eigenvalues --    1.84010   1.89148   1.91488   1.92206   1.95547
 Alpha virt. eigenvalues --    2.01284   2.09457   2.13885   2.19282   2.24950
 Alpha virt. eigenvalues --    2.27350   2.36694   2.43413   2.52382   2.56146
 Alpha virt. eigenvalues --    2.57701   2.61229   2.68461   2.86717   2.93390
 Alpha virt. eigenvalues --    3.03367   4.04525   4.11221   4.19490   4.24733
 Alpha virt. eigenvalues --    4.30588   4.41486
          Condensed to atoms (all electrons):
               1          2          3          4          5          6
     1  C    5.132370   0.039671  -0.006139   0.197709   0.051718  -0.015814
     2  C    0.039671   6.042783   0.057772  -0.067874   0.044622  -0.140251
     3  C   -0.006139   0.057772   4.958055   0.011311  -0.007178   0.473285
     4  O    0.197709  -0.067874   0.011311   8.172576  -0.143971   0.000012
     5  O    0.051718   0.044622  -0.007178  -0.143971   8.620445  -0.000901
     6  O   -0.015814  -0.140251   0.473285   0.000012  -0.000901   8.089244
     7  H    0.005240  -0.001126  -0.000718   0.010011   0.164579   0.000039
     8  H    0.371204   0.006159  -0.027282  -0.030574  -0.024254   0.003126
     9  H    0.374061  -0.062805   0.037908  -0.049808  -0.025443  -0.000915
    10  H    0.002150  -0.122594   0.394421   0.000781   0.000043  -0.059407
    11  H   -0.008161   0.353492  -0.023623  -0.015922  -0.001172   0.005355
    12  H   -0.009626   0.379837  -0.048742  -0.005327  -0.001048   0.000257
               7          8          9         10         11         12
     1  C    0.005240   0.371204   0.374061   0.002150  -0.008161  -0.009626
     2  C   -0.001126   0.006159  -0.062805  -0.122594   0.353492   0.379837
     3  C   -0.000718  -0.027282   0.037908   0.394421  -0.023623  -0.048742
     4  O    0.010011  -0.030574  -0.049808   0.000781  -0.015922  -0.005327
     5  O    0.164579  -0.024254  -0.025443   0.000043  -0.001172  -0.001048
     6  O    0.000039   0.003126  -0.000915  -0.059407   0.005355   0.000257
     7  H    0.376442   0.000818   0.000610  -0.000001   0.000036  -0.000003
     8  H    0.000818   0.510192  -0.054328   0.000159   0.000859  -0.000302
     9  H    0.000610  -0.054328   0.563613  -0.000061  -0.000117   0.000562
    10  H   -0.000001   0.000159  -0.000061   0.602663   0.003092   0.003191
    11  H    0.000036   0.000859  -0.000117   0.003092   0.460375  -0.021436
    12  H   -0.000003  -0.000302   0.000562   0.003191  -0.021436   0.436911
 Mulliken charges:
               1
     1  C   -0.134383
     2  C   -0.529687
     3  C    0.180932
     4  O   -0.078923
     5  O   -0.677440
     6  O   -0.354030
     7  H    0.444073
     8  H    0.244223
     9  H    0.216723
    10  H    0.175564
    11  H    0.247222
    12  H    0.265726
 Sum of Mulliken charges =  -0.00000
 Mulliken charges with hydrogens summed into heavy atoms:
               1
     1  C    0.326564
     2  C   -0.016739
     3  C    0.356496
     4  O   -0.078923
     5  O   -0.233367
     6  O   -0.354030
 APT charges:
               1
     1  C   -0.493074
     2  C   -0.848111
     3  C   -0.371880
     4  O   -0.110936
     5  O   -0.874834
     6  O   -0.176239
     7  H    0.634548
     8  H    0.448635
     9  H    0.409863
    10  H    0.438165
    11  H    0.482004
    12  H    0.461860
 Sum of APT charges =  -0.00000
 APT charges with hydrogens summed into heavy atoms:
               1
     1  C    0.365425
     2  C    0.095752
     3  C    0.066285
     4  O   -0.110936
     5  O   -0.240286
     6  O   -0.176239
 Electronic spatial extent (au):  <R**2>=            795.5928
 Charge=             -0.0000 electrons
 Dipole moment (field-independent basis, Debye):
    X=             -0.8952    Y=             -1.2063    Z=              2.2029  Tot=              2.6663
 Quadrupole moment (field-independent basis, Debye-Ang):
   XX=            -49.9889   YY=            -37.0453   ZZ=            -32.7979
   XY=              5.5995   XZ=              2.6042   YZ=              1.3738
 Traceless Quadrupole moment (field-independent basis, Debye-Ang):
   XX=            -10.0448   YY=              2.8987   ZZ=              7.1461
   XY=              5.5995   XZ=              2.6042   YZ=              1.3738
 Octapole moment (field-independent basis, Debye-Ang**2):
  XXX=              9.0964  YYY=             -2.8075  ZZZ=              0.8005  XYY=              1.8957
  XXY=            -12.7658  XXZ=             22.3863  XZZ=              4.2395  YZZ=              1.1214
  YYZ=              1.0986  XYZ=              1.4298
 Hexadecapole moment (field-independent basis, Debye-Ang**3):
 XXXX=           -865.3926 YYYY=           -144.3801 ZZZZ=            -64.4645 XXXY=             18.6037
 XXXZ=             43.9229 YYYX=             -1.9565 YYYZ=             -1.5826 ZZZX=              5.3670
 ZZZY=              2.1978 XXYY=           -168.4823 XXZZ=           -124.3167 YYZZ=            -34.9260
 XXYZ=              9.8493 YYXZ=              2.1741 ZZXY=              2.9691
 N-N= 2.270204282836D+02 E-N=-1.258137570496D+03  KE= 3.402464186749D+02
  Exact polarizability:   0.000   0.000   0.000   0.000   0.000   0.000
 Approx polarizability: 385.728  56.043  95.972  11.351  -4.016  62.920
 Calling FoFJK, ICntrl=    100127 FMM=F ISym2X=0 I1Cent= 0 IOpClX= 0 NMat=1 NMatS=1 NMatT=0.
 -------------------------------------------------------------------
 Center     Atomic                   Forces (Hartrees/Bohr)
 Number     Number              X              Y              Z
 -------------------------------------------------------------------
      1        6           0.000000362   -0.000001014   -0.000000045
      2        6          -0.000000141    0.000000642   -0.000000443
      3        6           0.000000512   -0.000000692    0.000000832
      4        8          -0.000000399    0.000001215   -0.000000433
      5        8          -0.000000144   -0.000000107   -0.000000562
      6        8          -0.000000406    0.000000746    0.000000172
      7        1           0.000000231   -0.000000413    0.000000281
      8        1          -0.000000027    0.000000286    0.000000450
      9        1           0.000000093   -0.000000379    0.000000276
     10        1           0.000000156   -0.000000369    0.000000003
     11        1          -0.000000028   -0.000000371   -0.000000402
     12        1          -0.000000211    0.000000457   -0.000000130
 -------------------------------------------------------------------
 Cartesian Forces:  Max     0.000001215 RMS     0.000000462
 IRC-IRC-IRC-IRC-IRC-IRC-IRC-IRC-IRC-IRC-IRC-IRC-IRC-IRC-IRC-IRC-IRC-IRC
          ******** Start new reaction path calculation ********
 Supplied step size of   0.1500 bohr.
    Integration on MW PES will use step size of   0.4560 sqrt(amu)*bohr.
 Point Number:   0          Path Number:   1
 Calculating another point on the path.
 IRC-IRC-IRC-IRC-IRC-IRC-IRC-IRC-IRC-IRC-IRC-IRC-IRC-IRC-IRC-IRC-IRC-IRC
                          Input orientation:                          
 ---------------------------------------------------------------------
 Center     Atomic      Atomic             Coordinates (Angstroms)
 Number     Number       Type             X           Y           Z
 ---------------------------------------------------------------------
      1          6           0        0.678466    0.384081   -0.080837
      2          6           0       -0.878203   -0.953323   -0.207003
      3          6           0       -1.860952   -0.058275    0.421929
      4          8           0        1.273136   -0.751763    0.050070
      5          8           0        2.730957    0.481072   -0.033701
      6          8           0       -2.490430    0.789293   -0.192382
      7          1           0        3.016963    0.465181    0.901426
      8          1           0        0.577280    0.853770   -1.062422
      9          1           0        0.485108    1.011974    0.794444
     10          1           0       -1.988945   -0.173356    1.517889
     11          1           0       -0.652246   -1.869759    0.334545
     12          1           0       -0.924826   -1.046674   -1.288991
 ---------------------------------------------------------------------
                    Distance matrix (angstroms):
                    1          2          3          4          5
     1  C    0.000000
     2  C    2.056157   0.000000
     3  C    2.626232   1.470531   0.000000
     4  O    1.288764   2.175999   3.231364   0.000000
     5  O    2.055322   3.887616   4.645871   1.911058   0.000000
     6  O    3.196645   2.374068   1.221471   4.074072   5.232882
     7  H    2.537713   4.291047   4.929298   2.290566   0.978015
     8  H    1.092866   2.473006   2.996681   2.073546   2.415677
     9  H    1.094419   2.593049   2.605417   2.070230   2.451840
    10  H    3.159389   2.194846   1.109394   3.623564   5.011305
    11  H    2.650119   1.088203   2.179468   2.244534   4.136190
    12  H    2.465206   1.087008   2.186438   2.590578   4.156262
                    6          7          8          9         10
     6  O    0.000000
     7  H    5.624308   0.000000
     8  H    3.189353   3.155908   0.000000
     9  H    3.142807   2.592435   1.865872   0.000000
    10  H    2.025638   5.083982   3.781337   2.837132   0.000000
    11  H    3.275230   4.385931   3.298615   3.132006   2.462691
    12  H    2.650366   4.756189   2.432970   3.250638   3.126277
                   11         12
    11  H    0.000000
    12  H    1.840554   0.000000
 Symmetry turned off by external request.
 Stoichiometry    C3H6O3
 Framework group  C1[X(C3H6O3)]
 Deg. of freedom    30
 Full point group                 C1      NOp   1
 Rotational constants (GHZ):           9.7186321           1.5503002           1.4121919
 Standard basis: 6-31+G(d) (6D, 7F)
   126 basis functions,   216 primitive gaussians,   126 cartesian basis functions
    24 alpha electrons       24 beta electrons
       nuclear repulsion energy       227.2219707388 Hartrees.
 NAtoms=   12 NActive=   12 NUniq=   12 SFac= 1.00D+00 NAtFMM=   60 NAOKFM=F Big=F
 Integral buffers will be    131072 words long.
 Raffenetti 2 integral format.
 Two-electron integral symmetry is turned off.
 One-electron integrals computed using PRISM.
 NBasis=   126 RedAO= T EigKep=  1.61D-04  NBF=   126
 NBsUse=   126 1.00D-06 EigRej= -1.00D+00 NBFU=   126
 Initial guess from the checkpoint file:  "/scratch/bell/zhao922/YARP/paper-example/KHP-network/pp_0/IRC-folder/Gau-52167.chk"
 B after Tr=     0.010177   -0.014769    0.023358
         Rot=    1.000000    0.000062   -0.000068    0.000043 Ang=   0.01 deg.
 ExpMin= 4.38D-02 ExpMax= 5.48D+03 ExpMxC= 8.25D+02 IAcc=3 IRadAn=         5 AccDes= 0.00D+00
 Harris functional with IExCor=  402 and IRadAn=       5 diagonalized for initial guess.
 HarFok:  IExCor=  402 AccDes= 0.00D+00 IRadAn=         5 IDoV= 1 UseB2=F ITyADJ=14
 ICtDFT=  3500011 ScaDFX=  1.000000  1.000000  1.000000  1.000000
 FoFCou: FMM=F IPFlag=           0 FMFlag=      100000 FMFlg1=           0
         NFxFlg=           0 DoJE=T BraDBF=F KetDBF=T FulRan=T
         wScrn=  0.000000 ICntrl=       500 IOpCl=  0 I1Cent=   200000004 NGrid=           0
         NMat0=    1 NMatS0=      1 NMatT0=    0 NMatD0=    1 NMtDS0=    0 NMtDT0=    0
 Symmetry not used in FoFCou.
 Keep R1 ints in memory in canonical form, NReq=47237219.
 Requested convergence on RMS density matrix=1.00D-08 within 128 cycles.
 Requested convergence on MAX density matrix=1.00D-06.
 Requested convergence on             energy=1.00D-06.
 No special actions if energy rises.
 SCF Done:  E(RB3LYP) =  -343.393998652     A.U. after   14 cycles
            NFock= 14  Conv=0.57D-08     -V/T= 2.0093
 DoSCS=F DFT=T ScalE2(SS,OS)=  1.000000  1.000000
 Range of M.O.s used for correlation:     1   126
 NBasis=   126 NAE=    24 NBE=    24 NFC=     0 NFV=     0
 NROrb=    126 NOA=    24 NOB=    24 NVA=   102 NVB=   102

 **** Warning!!: The largest alpha MO coefficient is  0.31530832D+02

 Symmetrizing basis deriv contribution to polar:
 IMax=3 JMax=2 DiffMx= 0.00D+00
 G2DrvN: will do    13 centers at a time, making    1 passes.
 Calling FoFCou, ICntrl=  3107 FMM=F I1Cent=   0 AccDes= 0.00D+00.
 End of G2Drv F.D. properties file   721 does not exist.
 End of G2Drv F.D. properties file   722 does not exist.
 End of G2Drv F.D. properties file   788 does not exist.
          IDoAtm=111111111111
          Differentiating once with respect to nuclear coordinates.
 Keep R1 ints in memory in canonical form, NReq=47193241.
          There are    39 degrees of freedom in the 1st order CPHF.  IDoFFX=6 NUNeed=     0.
     33 vectors produced by pass  0 Test12= 6.28D-15 2.56D-09 XBig12= 3.73D-01 3.88D-01.
 AX will form    33 AO Fock derivatives at one time.
     33 vectors produced by pass  1 Test12= 6.28D-15 2.56D-09 XBig12= 1.66D-01 1.11D-01.
     33 vectors produced by pass  2 Test12= 6.28D-15 2.56D-09 XBig12= 2.80D-03 9.00D-03.
     33 vectors produced by pass  3 Test12= 6.28D-15 2.56D-09 XBig12= 2.00D-05 8.88D-04.
     33 vectors produced by pass  4 Test12= 6.28D-15 2.56D-09 XBig12= 3.52D-08 2.54D-05.
     31 vectors produced by pass  5 Test12= 6.28D-15 2.56D-09 XBig12= 3.57D-11 7.42D-07.
      4 vectors produced by pass  6 Test12= 6.28D-15 2.56D-09 XBig12= 3.78D-14 3.22D-08.
 InvSVY:  IOpt=1 It=  1 EMax= 1.78D-15
 Solved reduced A of dimension   200 with    33 vectors.
 End of Minotr F.D. properties file   721 does not exist.
 End of Minotr F.D. properties file   722 does not exist.
 End of Minotr F.D. properties file   788 does not exist.
 Calling FoFJK, ICntrl=    100127 FMM=F ISym2X=0 I1Cent= 0 IOpClX= 0 NMat=1 NMatS=1 NMatT=0.
 -------------------------------------------------------------------
 Center     Atomic                   Forces (Hartrees/Bohr)
 Number     Number              X              Y              Z
 -------------------------------------------------------------------
      1        6          -0.029576073   -0.012680089   -0.001869060
      2        6           0.004158959    0.009167647   -0.000614752
      3        6          -0.003240826    0.000790161   -0.000312654
      4        8           0.026949315    0.013389695    0.000760271
      5        8           0.003129660   -0.010533928    0.001546070
      6        8          -0.001513801    0.000773611    0.000443561
      7        1           0.000603535   -0.001317691   -0.000128199
      8        1          -0.000351164   -0.000311849    0.000496444
      9        1          -0.000583188   -0.000475981   -0.000556632
     10        1          -0.000017679    0.000129366    0.000015097
     11        1           0.001108388    0.001234643    0.000057118
     12        1          -0.000667126   -0.000165586    0.000162736
 -------------------------------------------------------------------
 Cartesian Forces:  Max     0.029576073 RMS     0.007801467
 IRC-IRC-IRC-IRC-IRC-IRC-IRC-IRC-IRC-IRC-IRC-IRC-IRC-IRC-IRC-IRC-IRC-IRC
 Pt  1 Step number   1 out of a maximum of 100
 Modified Bulirsch-Stoer Extrapolation Cycles:
    EPS =    0.000010000000000
      PEZero:  N= 2 I= 1 D=  1.19D-03 Err=  2.36D-03
      PEZero:  N= 3 I= 2 D=  1.19D-03 Err=  1.57D-03
      PEZero:  N= 3 I= 1 D=  2.38D-03 Err=  7.04D-07
 Maximum DWI energy   std dev =  0.000026106 at pt     1
 Maximum DWI gradient std dev =  0.023191978 at pt    27
 CORRECTOR INTEGRATION CONVERGENCE:
   Recorrection delta-x convergence threshold:    0.010000
   Delta-x Convergence NOT Met
 IRC-IRC-IRC-IRC-IRC-IRC-IRC-IRC-IRC-IRC-IRC-IRC-IRC-IRC-IRC-IRC-IRC-IRC
                          Input orientation:                          
 ---------------------------------------------------------------------
 Center     Atomic      Atomic             Coordinates (Angstroms)
 Number     Number       Type             X           Y           Z
 ---------------------------------------------------------------------
      1          6           0        0.678811    0.383808   -0.080920
      2          6           0       -0.877168   -0.952950   -0.206984
      3          6           0       -1.861125   -0.058116    0.421993
      4          8           0        1.273179   -0.751593    0.050098
      5          8           0        2.730202    0.480894   -0.033758
      6          8           0       -2.490425    0.789222   -0.192347
      7          1           0        3.015550    0.463935    0.901430
      8          1           0        0.577588    0.853829   -1.061622
      9          1           0        0.484590    1.011507    0.793698
     10          1           0       -1.989147   -0.173241    1.517925
     11          1           0       -0.653207   -1.869813    0.334098
     12          1           0       -0.925181   -1.046898   -1.288746
 ---------------------------------------------------------------------
                    Distance matrix (angstroms):
                    1          2          3          4          5
     1  C    0.000000
     2  C    2.055209   0.000000
     3  C    2.626688   1.471228   0.000000
     4  O    1.288244   2.175000   3.231575   0.000000
     5  O    2.054229   3.885747   4.645269   1.910228   0.000000
     6  O    3.197004   2.374443   1.221235   4.074016   5.232128
     7  H    2.536096   4.288286   4.927916   2.288697   0.977900
     8  H    1.092219   2.472078   2.996678   2.072956   2.414401
     9  H    1.093931   2.591301   2.604733   2.069622   2.451328
    10  H    3.159843   2.195394   1.109374   3.623780   5.010776
    11  H    2.650532   1.087918   2.179228   2.245448   4.136255
    12  H    2.465472   1.086895   2.186392   2.590848   4.155835
                    6          7          8          9         10
     6  O    0.000000
     7  H    5.622982   0.000000
     8  H    3.189439   3.154243   0.000000
     9  H    3.142039   2.591756   1.864329   0.000000
    10  H    2.025498   5.082623   3.781146   2.836813   0.000000
    11  H    3.274596   4.384978   3.298654   3.131744   2.462628
    12  H    2.650173   4.754876   2.433652   3.249778   3.126132
                   11         12
    11  H    0.000000
    12  H    1.839777   0.000000
 Symmetry turned off by external request.
 Stoichiometry    C3H6O3
 Framework group  C1[X(C3H6O3)]
 Deg. of freedom    30
 Full point group                 C1      NOp   1
 Rotational constants (GHZ):           9.7234650           1.5506845           1.4125874
 Standard basis: 6-31+G(d) (6D, 7F)
   126 basis functions,   216 primitive gaussians,   126 cartesian basis functions
    24 alpha electrons       24 beta electrons
       nuclear repulsion energy       227.2641027227 Hartrees.
 NAtoms=   12 NActive=   12 NUniq=   12 SFac= 1.00D+00 NAtFMM=   60 NAOKFM=F Big=F
 Integral buffers will be    131072 words long.
 Raffenetti 2 integral format.
 Two-electron integral symmetry is turned off.
 One-electron integrals computed using PRISM.
 NBasis=   126 RedAO= T EigKep=  1.62D-04  NBF=   126
 NBsUse=   126 1.00D-06 EigRej= -1.00D+00 NBFU=   126
 Initial guess from the checkpoint file:  "/scratch/bell/zhao922/YARP/paper-example/KHP-network/pp_0/IRC-folder/Gau-52167.chk"
 B after Tr=    -0.000061   -0.000035   -0.000002
         Rot=    1.000000   -0.000013    0.000003    0.000007 Ang=  -0.00 deg.
 ExpMin= 4.38D-02 ExpMax= 5.48D+03 ExpMxC= 8.25D+02 IAcc=3 IRadAn=         5 AccDes= 0.00D+00
 Harris functional with IExCor=  402 and IRadAn=       5 diagonalized for initial guess.
 HarFok:  IExCor=  402 AccDes= 0.00D+00 IRadAn=         5 IDoV= 1 UseB2=F ITyADJ=14
 ICtDFT=  3500011 ScaDFX=  1.000000  1.000000  1.000000  1.000000
 FoFCou: FMM=F IPFlag=           0 FMFlag=      100000 FMFlg1=           0
         NFxFlg=           0 DoJE=T BraDBF=F KetDBF=T FulRan=T
         wScrn=  0.000000 ICntrl=       500 IOpCl=  0 I1Cent=   200000004 NGrid=           0
         NMat0=    1 NMatS0=      1 NMatT0=    0 NMatD0=    1 NMtDS0=    0 NMtDT0=    0
 Symmetry not used in FoFCou.
 Keep R1 ints in memory in canonical form, NReq=47237219.
 Requested convergence on RMS density matrix=1.00D-08 within 128 cycles.
 Requested convergence on MAX density matrix=1.00D-06.
 Requested convergence on             energy=1.00D-06.
 No special actions if energy rises.
 SCF Done:  E(RB3LYP) =  -343.394007746     A.U. after   10 cycles
            NFock= 10  Conv=0.74D-08     -V/T= 2.0092
 DoSCS=F DFT=T ScalE2(SS,OS)=  1.000000  1.000000
 Range of M.O.s used for correlation:     1   126
 NBasis=   126 NAE=    24 NBE=    24 NFC=     0 NFV=     0
 NROrb=    126 NOA=    24 NOB=    24 NVA=   102 NVB=   102

 **** Warning!!: The largest alpha MO coefficient is  0.31495063D+02

 Symmetrizing basis deriv contribution to polar:
 IMax=3 JMax=2 DiffMx= 0.00D+00
 Calling FoFJK, ICntrl=      2127 FMM=F ISym2X=0 I1Cent= 0 IOpClX= 0 NMat=1 NMatS=1 NMatT=0.
 -------------------------------------------------------------------
 Center     Atomic                   Forces (Hartrees/Bohr)
 Number     Number              X              Y              Z
 -------------------------------------------------------------------
      1        6          -0.029954138   -0.012447288   -0.001787678
      2        6           0.003681241    0.009425599   -0.000519870
      3        6          -0.002850775    0.000520832   -0.000340760
      4        8           0.027208069    0.012783288    0.000756066
      5        8           0.003224449   -0.010524938    0.001516000
      6        8          -0.001654901    0.000929413    0.000328012
      7        1           0.000670260   -0.001266055   -0.000047061
      8        1          -0.000362014   -0.000191747    0.000045117
      9        1          -0.000584772   -0.000304963   -0.000232670
     10        1          -0.000035092    0.000108687    0.000034057
     11        1           0.001255077    0.001089848    0.000193183
     12        1          -0.000597403   -0.000122678    0.000055604
 -------------------------------------------------------------------
 Cartesian Forces:  Max     0.029954138 RMS     0.007824294
 IRC-IRC-IRC-IRC-IRC-IRC-IRC-IRC-IRC-IRC-IRC-IRC-IRC-IRC-IRC-IRC-IRC-IRC
 Error in corrector energy =          -0.0000000866
 Magnitude of corrector gradient =     0.0469502374
 Magnitude of analytic gradient =      0.0469457653
 Magnitude of difference =             0.0000497067
 Angle between gradients (degrees)=    0.0604
 Pt  1 Step number   2 out of a maximum of 100
 Modified Bulirsch-Stoer Extrapolation Cycles:
    EPS =    0.000010000000000
      PEZero:  N= 2 I= 1 D=  1.19D-03 Err=  2.38D-03
      PEZero:  N= 3 I= 2 D=  1.19D-03 Err=  1.59D-03
      PEZero:  N= 3 I= 1 D=  2.38D-03 Err=  3.70D-07
 Maximum DWI energy   std dev =  0.000018235 at pt     1
 Maximum DWI gradient std dev =  0.057933803 at pt     1
 CORRECTOR INTEGRATION CONVERGENCE:
   Recorrection delta-x convergence threshold:    0.010000
   Delta-x Convergence Met
 Point Number:   1          Path Number:   1
   CHANGE IN THE REACTION COORDINATE =    0.45576
   NET REACTION COORDINATE UP TO THIS POINT =    0.45576
  # OF POINTS ALONG THE PATH =   1
  # OF STEPS =   2

 Calculating another point on the path.
 IRC-IRC-IRC-IRC-IRC-IRC-IRC-IRC-IRC-IRC-IRC-IRC-IRC-IRC-IRC-IRC-IRC-IRC
                          Input orientation:                          
 ---------------------------------------------------------------------
 Center     Atomic      Atomic             Coordinates (Angstroms)
 Number     Number       Type             X           Y           Z
 ---------------------------------------------------------------------
      1          6           0        0.632710    0.364464   -0.083813
      2          6           0       -0.870376   -0.937682   -0.207633
      3          6           0       -1.865519   -0.057243    0.421497
      4          8           0        1.305081   -0.736826    0.050983
      5          8           0        2.732849    0.468360   -0.032049
      6          8           0       -2.492434    0.790264   -0.191958
      7          1           0        3.026164    0.439610    0.900703
      8          1           0        0.571085    0.850176   -1.060951
      9          1           0        0.473184    1.005524    0.789296
     10          1           0       -1.990284   -0.171456    1.518513
     11          1           0       -0.630231   -1.849588    0.337537
     12          1           0       -0.935793   -1.048825   -1.287562
 ---------------------------------------------------------------------
                    Distance matrix (angstroms):
                    1          2          3          4          5
     1  C    0.000000
     2  C    1.992532   0.000000
     3  C    2.583471   1.470132   0.000000
     4  O    1.297340   2.199964   3.263713   0.000000
     5  O    2.103345   3.871823   4.650479   1.870264   0.000000
     6  O    3.155871   2.370046   1.219679   4.100261   5.237630
     7  H    2.589120   4.278828   4.940148   2.251255   0.978206
     8  H    1.092938   2.449980   2.993009   2.072130   2.424385
     9  H    1.094863   2.564190   2.595049   2.067110   2.463583
    10  H    3.120057   2.195650   1.109981   3.651400   5.012145
    11  H    2.583522   1.089244   2.178414   2.250731   4.101193
    12  H    2.430350   1.087603   2.183691   2.628795   4.163784
                    6          7          8          9         10
     6  O    0.000000
     7  H    5.636647   0.000000
     8  H    3.184947   3.169237   0.000000
     9  H    3.131147   2.617323   1.859336   0.000000
    10  H    2.025530   5.091153   3.775974   2.825900   0.000000
    11  H    3.273680   4.350495   3.269198   3.094071   2.461824
    12  H    2.646834   4.764562   2.434798   3.243286   3.123426
                   11         12
    11  H    0.000000
    12  H    1.837263   0.000000
 Symmetry turned off by external request.
 Stoichiometry    C3H6O3
 Framework group  C1[X(C3H6O3)]
 Deg. of freedom    30
 Full point group                 C1      NOp   1
 Rotational constants (GHZ):           9.9588453           1.5452872           1.4128710
 Standard basis: 6-31+G(d) (6D, 7F)
   126 basis functions,   216 primitive gaussians,   126 cartesian basis functions
    24 alpha electrons       24 beta electrons
       nuclear repulsion energy       227.5914488068 Hartrees.
 NAtoms=   12 NActive=   12 NUniq=   12 SFac= 1.00D+00 NAtFMM=   60 NAOKFM=F Big=F
 Integral buffers will be    131072 words long.
 Raffenetti 2 integral format.
 Two-electron integral symmetry is turned off.
 One-electron integrals computed using PRISM.
 NBasis=   126 RedAO= T EigKep=  1.61D-04  NBF=   126
 NBsUse=   126 1.00D-06 EigRej= -1.00D+00 NBFU=   126
 Initial guess from the checkpoint file:  "/scratch/bell/zhao922/YARP/paper-example/KHP-network/pp_0/IRC-folder/Gau-52167.chk"
 B after Tr=     0.000080   -0.000271    0.000016
         Rot=    1.000000    0.000012   -0.000051    0.000065 Ang=   0.01 deg.
 ExpMin= 4.38D-02 ExpMax= 5.48D+03 ExpMxC= 8.25D+02 IAcc=3 IRadAn=         5 AccDes= 0.00D+00
 Harris functional with IExCor=  402 and IRadAn=       5 diagonalized for initial guess.
 HarFok:  IExCor=  402 AccDes= 0.00D+00 IRadAn=         5 IDoV= 1 UseB2=F ITyADJ=14
 ICtDFT=  3500011 ScaDFX=  1.000000  1.000000  1.000000  1.000000
 FoFCou: FMM=F IPFlag=           0 FMFlag=      100000 FMFlg1=           0
         NFxFlg=           0 DoJE=T BraDBF=F KetDBF=T FulRan=T
         wScrn=  0.000000 ICntrl=       500 IOpCl=  0 I1Cent=   200000004 NGrid=           0
         NMat0=    1 NMatS0=      1 NMatT0=    0 NMatD0=    1 NMtDS0=    0 NMtDT0=    0
 Symmetry not used in FoFCou.
 Keep R1 ints in memory in canonical form, NReq=47237219.
 Requested convergence on RMS density matrix=1.00D-08 within 128 cycles.
 Requested convergence on MAX density matrix=1.00D-06.
 Requested convergence on             energy=1.00D-06.
 No special actions if energy rises.
 SCF Done:  E(RB3LYP) =  -343.402279254     A.U. after   13 cycles
            NFock= 13  Conv=0.95D-08     -V/T= 2.0093
 DoSCS=F DFT=T ScalE2(SS,OS)=  1.000000  1.000000
 Range of M.O.s used for correlation:     1   126
 NBasis=   126 NAE=    24 NBE=    24 NFC=     0 NFV=     0
 NROrb=    126 NOA=    24 NOB=    24 NVA=   102 NVB=   102

 **** Warning!!: The largest alpha MO coefficient is  0.31074550D+02

 Symmetrizing basis deriv contribution to polar:
 IMax=3 JMax=2 DiffMx= 0.00D+00
 G2DrvN: will do    13 centers at a time, making    1 passes.
 Calling FoFCou, ICntrl=  3107 FMM=F I1Cent=   0 AccDes= 0.00D+00.
 End of G2Drv F.D. properties file   721 does not exist.
 End of G2Drv F.D. properties file   722 does not exist.
 End of G2Drv F.D. properties file   788 does not exist.
          IDoAtm=111111111111
          Differentiating once with respect to nuclear coordinates.
 Keep R1 ints in memory in canonical form, NReq=47193241.
          There are    39 degrees of freedom in the 1st order CPHF.  IDoFFX=6 NUNeed=     0.
     33 vectors produced by pass  0 Test12= 6.28D-15 2.56D-09 XBig12= 2.93D-01 2.86D-01.
 AX will form    33 AO Fock derivatives at one time.
     33 vectors produced by pass  1 Test12= 6.28D-15 2.56D-09 XBig12= 1.34D-01 8.93D-02.
     33 vectors produced by pass  2 Test12= 6.28D-15 2.56D-09 XBig12= 2.24D-03 8.21D-03.
     33 vectors produced by pass  3 Test12= 6.28D-15 2.56D-09 XBig12= 1.47D-05 6.72D-04.
     33 vectors produced by pass  4 Test12= 6.28D-15 2.56D-09 XBig12= 2.73D-08 2.70D-05.
     30 vectors produced by pass  5 Test12= 6.28D-15 2.56D-09 XBig12= 2.86D-11 7.38D-07.
      5 vectors produced by pass  6 Test12= 6.28D-15 2.56D-09 XBig12= 2.96D-14 2.77D-08.
 InvSVY:  IOpt=1 It=  1 EMax= 2.44D-15
 Solved reduced A of dimension   200 with    33 vectors.
 End of Minotr F.D. properties file   721 does not exist.
 End of Minotr F.D. properties file   722 does not exist.
 End of Minotr F.D. properties file   788 does not exist.
 Calling FoFJK, ICntrl=    100127 FMM=F ISym2X=0 I1Cent= 0 IOpClX= 0 NMat=1 NMatS=1 NMatT=0.
 -------------------------------------------------------------------
 Center     Atomic                   Forces (Hartrees/Bohr)
 Number     Number              X              Y              Z
 -------------------------------------------------------------------
      1        6          -0.050219387   -0.022987936   -0.003567369
      2        6           0.009738253    0.018119895   -0.000793403
      3        6          -0.005375670    0.001200100   -0.000362490
      4        8           0.048106856    0.023626699    0.001277643
      5        8           0.001539456   -0.019611100    0.002519841
      6        8          -0.003134170    0.001493466    0.000642362
      7        1           0.000695091   -0.002424656   -0.000170537
      8        1          -0.000720452   -0.000512245    0.000588754
      9        1          -0.001342729   -0.000823273   -0.000731826
     10        1          -0.000172355    0.000179512    0.000038650
     11        1           0.001940240    0.001956413    0.000209809
     12        1          -0.001055134   -0.000216876    0.000348565
 -------------------------------------------------------------------
 Cartesian Forces:  Max     0.050219387 RMS     0.013760695
 IRC-IRC-IRC-IRC-IRC-IRC-IRC-IRC-IRC-IRC-IRC-IRC-IRC-IRC-IRC-IRC-IRC-IRC
 Pt  2 Step number   1 out of a maximum of 100
 Modified Bulirsch-Stoer Extrapolation Cycles:
    EPS =    0.000010000000000
      PEZero:  N= 2 I= 1 D=  2.37D-03 Err=  1.57D-04
      PEZero:  N= 3 I= 2 D=  2.37D-03 Err=  1.04D-04
      PEZero:  N= 3 I= 1 D=  4.75D-03 Err=  1.95D-07
 Maximum DWI energy   std dev =  0.000038785 at pt    27
 Maximum DWI gradient std dev =  0.012093803 at pt    24
 CORRECTOR INTEGRATION CONVERGENCE:
   Recorrection delta-x convergence threshold:    0.010000
   Delta-x Convergence Met
 Point Number:   2          Path Number:   1
   CHANGE IN THE REACTION COORDINATE =    0.45572
   NET REACTION COORDINATE UP TO THIS POINT =    0.91149
  # OF POINTS ALONG THE PATH =   2
  # OF STEPS =   1

 Calculating another point on the path.
 IRC-IRC-IRC-IRC-IRC-IRC-IRC-IRC-IRC-IRC-IRC-IRC-IRC-IRC-IRC-IRC-IRC-IRC
                          Input orientation:                          
 ---------------------------------------------------------------------
 Center     Atomic      Atomic             Coordinates (Angstroms)
 Number     Number       Type             X           Y           Z
 ---------------------------------------------------------------------
      1          6           0        0.589151    0.343973   -0.086976
      2          6           0       -0.860593   -0.920919   -0.208066
      3          6           0       -1.870269   -0.056149    0.421219
      4          8           0        1.337285   -0.721258    0.051834
      5          8           0        2.732438    0.455023   -0.030517
      6          8           0       -2.494619    0.791245   -0.191532
      7          1           0        3.031486    0.413528    0.900035
      8          1           0        0.563426    0.845835   -1.057936
      9          1           0        0.457837    0.996971    0.783114
     10          1           0       -1.992878   -0.169865    1.519065
     11          1           0       -0.610338   -1.829762    0.339935
     12          1           0       -0.946594   -1.050888   -1.285129
 ---------------------------------------------------------------------
                    Distance matrix (angstroms):
                    1          2          3          4          5
     1  C    0.000000
     2  C    1.927789   0.000000
     3  C    2.543051   1.470807   0.000000
     4  O    1.309080   2.222178   3.296547   0.000000
     5  O    2.146905   3.851573   4.652986   1.826711   0.000000
     6  O    3.117791   2.366816   1.217930   4.126788   5.240334
     7  H    2.635153   4.261093   4.947430   2.208507   0.978304
     8  H    1.093293   2.423123   2.987364   2.070320   2.431653
     9  H    1.095768   2.529624   2.580719   2.064101   2.475786
    10  H    3.083872   2.197528   1.110509   3.680595   5.012016
    11  H    2.519157   1.090380   2.177094   2.259429   4.065911
    12  H    2.395771   1.088280   2.180437   2.666876   4.168584
                    6          7          8          9         10
     6  O    0.000000
     7  H    5.645531   0.000000
     8  H    3.178879   3.179915   0.000000
     9  H    3.115968   2.641542   1.850259   0.000000
    10  H    2.025246   5.095858   3.769253   2.812318   0.000000
    11  H    3.271490   4.313808   3.238917   3.054149   2.461101
    12  H    2.643064   4.769127   2.435022   3.231685   3.120002
                   11         12
    11  H    0.000000
    12  H    1.833179   0.000000
 Symmetry turned off by external request.
 Stoichiometry    C3H6O3
 Framework group  C1[X(C3H6O3)]
 Deg. of freedom    30
 Full point group                 C1      NOp   1
 Rotational constants (GHZ):          10.2222854           1.5407873           1.4141103
 Standard basis: 6-31+G(d) (6D, 7F)
   126 basis functions,   216 primitive gaussians,   126 cartesian basis functions
    24 alpha electrons       24 beta electrons
       nuclear repulsion energy       228.0482035688 Hartrees.
 NAtoms=   12 NActive=   12 NUniq=   12 SFac= 1.00D+00 NAtFMM=   60 NAOKFM=F Big=F
 Integral buffers will be    131072 words long.
 Raffenetti 2 integral format.
 Two-electron integral symmetry is turned off.
 One-electron integrals computed using PRISM.
 NBasis=   126 RedAO= T EigKep=  1.61D-04  NBF=   126
 NBsUse=   126 1.00D-06 EigRej= -1.00D+00 NBFU=   126
 Initial guess from the checkpoint file:  "/scratch/bell/zhao922/YARP/paper-example/KHP-network/pp_0/IRC-folder/Gau-52167.chk"
 B after Tr=    -0.000215   -0.000380    0.000032
         Rot=    1.000000   -0.000018   -0.000036    0.000071 Ang=  -0.01 deg.
 ExpMin= 4.38D-02 ExpMax= 5.48D+03 ExpMxC= 8.25D+02 IAcc=3 IRadAn=         5 AccDes= 0.00D+00
 Harris functional with IExCor=  402 and IRadAn=       5 diagonalized for initial guess.
 HarFok:  IExCor=  402 AccDes= 0.00D+00 IRadAn=         5 IDoV= 1 UseB2=F ITyADJ=14
 ICtDFT=  3500011 ScaDFX=  1.000000  1.000000  1.000000  1.000000
 FoFCou: FMM=F IPFlag=           0 FMFlag=      100000 FMFlg1=           0
         NFxFlg=           0 DoJE=T BraDBF=F KetDBF=T FulRan=T
         wScrn=  0.000000 ICntrl=       500 IOpCl=  0 I1Cent=   200000004 NGrid=           0
         NMat0=    1 NMatS0=      1 NMatT0=    0 NMatD0=    1 NMtDS0=    0 NMtDT0=    0
 Symmetry not used in FoFCou.
 Keep R1 ints in memory in canonical form, NReq=47237219.
 Requested convergence on RMS density matrix=1.00D-08 within 128 cycles.
 Requested convergence on MAX density matrix=1.00D-06.
 Requested convergence on             energy=1.00D-06.
 No special actions if energy rises.
 SCF Done:  E(RB3LYP) =  -343.414261484     A.U. after   13 cycles
            NFock= 13  Conv=0.59D-08     -V/T= 2.0094
 DoSCS=F DFT=T ScalE2(SS,OS)=  1.000000  1.000000
 Range of M.O.s used for correlation:     1   126
 NBasis=   126 NAE=    24 NBE=    24 NFC=     0 NFV=     0
 NROrb=    126 NOA=    24 NOB=    24 NVA=   102 NVB=   102

 **** Warning!!: The largest alpha MO coefficient is  0.30299510D+02

 Symmetrizing basis deriv contribution to polar:
 IMax=3 JMax=2 DiffMx= 0.00D+00
 G2DrvN: will do    13 centers at a time, making    1 passes.
 Calling FoFCou, ICntrl=  3107 FMM=F I1Cent=   0 AccDes= 0.00D+00.
 End of G2Drv F.D. properties file   721 does not exist.
 End of G2Drv F.D. properties file   722 does not exist.
 End of G2Drv F.D. properties file   788 does not exist.
          IDoAtm=111111111111
          Differentiating once with respect to nuclear coordinates.
 Keep R1 ints in memory in canonical form, NReq=47193241.
          There are    39 degrees of freedom in the 1st order CPHF.  IDoFFX=6 NUNeed=     0.
     33 vectors produced by pass  0 Test12= 6.28D-15 2.56D-09 XBig12= 2.28D-01 1.86D-01.
 AX will form    33 AO Fock derivatives at one time.
     33 vectors produced by pass  1 Test12= 6.28D-15 2.56D-09 XBig12= 8.35D-02 7.66D-02.
     33 vectors produced by pass  2 Test12= 6.28D-15 2.56D-09 XBig12= 1.28D-03 6.60D-03.
     33 vectors produced by pass  3 Test12= 6.28D-15 2.56D-09 XBig12= 7.34D-06 5.15D-04.
     33 vectors produced by pass  4 Test12= 6.28D-15 2.56D-09 XBig12= 1.47D-08 1.66D-05.
     30 vectors produced by pass  5 Test12= 6.28D-15 2.56D-09 XBig12= 1.64D-11 6.88D-07.
      5 vectors produced by pass  6 Test12= 6.28D-15 2.56D-09 XBig12= 1.53D-14 2.01D-08.
 InvSVY:  IOpt=1 It=  1 EMax= 1.89D-15
 Solved reduced A of dimension   200 with    33 vectors.
 End of Minotr F.D. properties file   721 does not exist.
 End of Minotr F.D. properties file   722 does not exist.
 End of Minotr F.D. properties file   788 does not exist.
 Calling FoFJK, ICntrl=    100127 FMM=F ISym2X=0 I1Cent= 0 IOpClX= 0 NMat=1 NMatS=1 NMatT=0.
 -------------------------------------------------------------------
 Center     Atomic                   Forces (Hartrees/Bohr)
 Number     Number              X              Y              Z
 -------------------------------------------------------------------
      1        6          -0.060979838   -0.030799408   -0.004909709
      2        6           0.015937277    0.025340870   -0.000564417
      3        6          -0.007060619    0.001595406   -0.000210434
      4        8           0.062481412    0.031393530    0.001515627
      5        8          -0.003467904   -0.026661329    0.002971630
      6        8          -0.004542159    0.001981622    0.000787997
      7        1           0.000389412   -0.003235208   -0.000189143
      8        1          -0.001119029   -0.000706552    0.000731017
      9        1          -0.002176440   -0.001288018   -0.000941687
     10        1          -0.000423001    0.000165365    0.000048735
     11        1           0.002254654    0.002445749    0.000224362
     12        1          -0.001293764   -0.000232026    0.000536022
 -------------------------------------------------------------------
 Cartesian Forces:  Max     0.062481412 RMS     0.017734436
 IRC-IRC-IRC-IRC-IRC-IRC-IRC-IRC-IRC-IRC-IRC-IRC-IRC-IRC-IRC-IRC-IRC-IRC
 Pt  3 Step number   1 out of a maximum of 100
 Modified Bulirsch-Stoer Extrapolation Cycles:
    EPS =    0.000010000000000
      PEZero:  N= 2 I= 1 D=  2.37D-03 Err=  1.59D-04
      PEZero:  N= 3 I= 2 D=  2.37D-03 Err=  1.06D-04
      PEZero:  N= 3 I= 1 D=  4.75D-03 Err=  1.68D-07
 Maximum DWI energy   std dev =  0.000035020 at pt    19
 Maximum DWI gradient std dev =  0.007069441 at pt    35
 CORRECTOR INTEGRATION CONVERGENCE:
   Recorrection delta-x convergence threshold:    0.010000
   Delta-x Convergence Met
 Point Number:   3          Path Number:   1
   CHANGE IN THE REACTION COORDINATE =    0.45575
   NET REACTION COORDINATE UP TO THIS POINT =    1.36723
  # OF POINTS ALONG THE PATH =   3
  # OF STEPS =   1

 Calculating another point on the path.
 IRC-IRC-IRC-IRC-IRC-IRC-IRC-IRC-IRC-IRC-IRC-IRC-IRC-IRC-IRC-IRC-IRC-IRC
                          Input orientation:                          
 ---------------------------------------------------------------------
 Center     Atomic      Atomic             Coordinates (Angstroms)
 Number     Number       Type             X           Y           Z
 ---------------------------------------------------------------------
      1          6           0        0.548426    0.322540   -0.090385
      2          6           0       -0.848641   -0.902884   -0.208191
      3          6           0       -1.875157   -0.055019    0.421108
      4          8           0        1.369695   -0.704976    0.052582
      5          8           0        2.729252    0.440946   -0.029090
      6          8           0       -2.497076    0.792263   -0.191119
      7          1           0        3.033017    0.386899    0.899269
      8          1           0        0.553908    0.840588   -1.053741
      9          1           0        0.438756    0.985967    0.776158
     10          1           0       -1.997224   -0.168919    1.519484
     11          1           0       -0.592654   -1.810248    0.341799
     12          1           0       -0.956869   -1.052588   -1.281548
 ---------------------------------------------------------------------
                    Distance matrix (angstroms):
                    1          2          3          4          5
     1  C    0.000000
     2  C    1.862079   0.000000
     3  C    2.505580   1.472626   0.000000
     4  O    1.323145   2.242362   3.329763   0.000000
     5  O    2.184898   3.826131   4.652875   1.779945   0.000000
     6  O    3.083159   2.364562   1.216344   4.153677   5.240628
     7  H    2.675210   4.237603   4.951172   2.162339   0.978287
     8  H    1.093828   2.392027   2.979538   2.068388   2.437569
     9  H    1.096841   2.488794   2.562012   2.061432   2.488342
    10  H    3.051810   2.200638   1.110992   3.711510   5.010948
    11  H    2.457159   1.091479   2.175300   2.270702   4.029950
    12  H    2.361304   1.089137   2.176564   2.704373   4.169746
                    6          7          8          9         10
     6  O    0.000000
     7  H    5.651123   0.000000
     8  H    3.170955   3.188426   0.000000
     9  H    3.097136   2.665376   1.839273   0.000000
    10  H    2.024817   5.098718   3.761497   2.796479   0.000000
    11  H    3.268622   4.275947   3.207658   3.011859   2.460430
    12  H    2.639081   4.769410   2.432788   3.215218   3.115925
                   11         12
    11  H    0.000000
    12  H    1.828102   0.000000
 Symmetry turned off by external request.
 Stoichiometry    C3H6O3
 Framework group  C1[X(C3H6O3)]
 Deg. of freedom    30
 Full point group                 C1      NOp   1
 Rotational constants (GHZ):          10.5127210           1.5369619           1.4160746
 Standard basis: 6-31+G(d) (6D, 7F)
   126 basis functions,   216 primitive gaussians,   126 cartesian basis functions
    24 alpha electrons       24 beta electrons
       nuclear repulsion energy       228.6195952622 Hartrees.
 NAtoms=   12 NActive=   12 NUniq=   12 SFac= 1.00D+00 NAtFMM=   60 NAOKFM=F Big=F
 Integral buffers will be    131072 words long.
 Raffenetti 2 integral format.
 Two-electron integral symmetry is turned off.
 One-electron integrals computed using PRISM.
 NBasis=   126 RedAO= T EigKep=  1.62D-04  NBF=   126
 NBsUse=   126 1.00D-06 EigRej= -1.00D+00 NBFU=   126
 Initial guess from the checkpoint file:  "/scratch/bell/zhao922/YARP/paper-example/KHP-network/pp_0/IRC-folder/Gau-52167.chk"
 B after Tr=    -0.000465   -0.000467    0.000048
         Rot=    1.000000   -0.000041   -0.000025    0.000069 Ang=  -0.01 deg.
 ExpMin= 4.38D-02 ExpMax= 5.48D+03 ExpMxC= 8.25D+02 IAcc=3 IRadAn=         5 AccDes= 0.00D+00
 Harris functional with IExCor=  402 and IRadAn=       5 diagonalized for initial guess.
 HarFok:  IExCor=  402 AccDes= 0.00D+00 IRadAn=         5 IDoV= 1 UseB2=F ITyADJ=14
 ICtDFT=  3500011 ScaDFX=  1.000000  1.000000  1.000000  1.000000
 FoFCou: FMM=F IPFlag=           0 FMFlag=      100000 FMFlg1=           0
         NFxFlg=           0 DoJE=T BraDBF=F KetDBF=T FulRan=T
         wScrn=  0.000000 ICntrl=       500 IOpCl=  0 I1Cent=   200000004 NGrid=           0
         NMat0=    1 NMatS0=      1 NMatT0=    0 NMatD0=    1 NMtDS0=    0 NMtDT0=    0
 Symmetry not used in FoFCou.
 Keep R1 ints in memory in canonical form, NReq=47237219.
 Requested convergence on RMS density matrix=1.00D-08 within 128 cycles.
 Requested convergence on MAX density matrix=1.00D-06.
 Requested convergence on             energy=1.00D-06.
 No special actions if energy rises.
 SCF Done:  E(RB3LYP) =  -343.428548099     A.U. after   13 cycles
            NFock= 13  Conv=0.40D-08     -V/T= 2.0095
 DoSCS=F DFT=T ScalE2(SS,OS)=  1.000000  1.000000
 Range of M.O.s used for correlation:     1   126
 NBasis=   126 NAE=    24 NBE=    24 NFC=     0 NFV=     0
 NROrb=    126 NOA=    24 NOB=    24 NVA=   102 NVB=   102

 **** Warning!!: The largest alpha MO coefficient is  0.29108383D+02

 Symmetrizing basis deriv contribution to polar:
 IMax=3 JMax=2 DiffMx= 0.00D+00
 G2DrvN: will do    13 centers at a time, making    1 passes.
 Calling FoFCou, ICntrl=  3107 FMM=F I1Cent=   0 AccDes= 0.00D+00.
 End of G2Drv F.D. properties file   721 does not exist.
 End of G2Drv F.D. properties file   722 does not exist.
 End of G2Drv F.D. properties file   788 does not exist.
          IDoAtm=111111111111
          Differentiating once with respect to nuclear coordinates.
 Keep R1 ints in memory in canonical form, NReq=47193241.
          There are    39 degrees of freedom in the 1st order CPHF.  IDoFFX=6 NUNeed=     0.
     33 vectors produced by pass  0 Test12= 6.28D-15 2.56D-09 XBig12= 1.82D-01 1.59D-01.
 AX will form    33 AO Fock derivatives at one time.
     33 vectors produced by pass  1 Test12= 6.28D-15 2.56D-09 XBig12= 3.43D-02 4.31D-02.
     33 vectors produced by pass  2 Test12= 6.28D-15 2.56D-09 XBig12= 5.42D-04 3.66D-03.
     33 vectors produced by pass  3 Test12= 6.28D-15 2.56D-09 XBig12= 3.12D-06 3.21D-04.
     33 vectors produced by pass  4 Test12= 6.28D-15 2.56D-09 XBig12= 5.63D-09 1.20D-05.
     29 vectors produced by pass  5 Test12= 6.28D-15 2.56D-09 XBig12= 6.54D-12 4.38D-07.
      5 vectors produced by pass  6 Test12= 6.28D-15 2.56D-09 XBig12= 6.13D-15 1.15D-08.
 InvSVY:  IOpt=1 It=  1 EMax= 1.55D-15
 Solved reduced A of dimension   199 with    33 vectors.
 End of Minotr F.D. properties file   721 does not exist.
 End of Minotr F.D. properties file   722 does not exist.
 End of Minotr F.D. properties file   788 does not exist.
 Calling FoFJK, ICntrl=    100127 FMM=F ISym2X=0 I1Cent= 0 IOpClX= 0 NMat=1 NMatS=1 NMatT=0.
 -------------------------------------------------------------------
 Center     Atomic                   Forces (Hartrees/Bohr)
 Number     Number              X              Y              Z
 -------------------------------------------------------------------
      1        6          -0.063827090   -0.036065661   -0.005918481
      2        6           0.021041105    0.030441003   -0.000123606
      3        6          -0.008070493    0.001816499    0.000002858
      4        8           0.070702744    0.036793803    0.001442007
      5        8          -0.009847047   -0.031621970    0.003182639
      6        8          -0.005765866    0.002335492    0.000840895
      7        1          -0.000006460   -0.003647822   -0.000239696
      8        1          -0.001511375   -0.000880446    0.000870475
      9        1          -0.002912859   -0.001745351   -0.001068352
     10        1          -0.000741433    0.000069581    0.000031750
     11        1           0.002278935    0.002687540    0.000217318
     12        1          -0.001340162   -0.000182669    0.000762192
 -------------------------------------------------------------------
 Cartesian Forces:  Max     0.070702744 RMS     0.019995807
 IRC-IRC-IRC-IRC-IRC-IRC-IRC-IRC-IRC-IRC-IRC-IRC-IRC-IRC-IRC-IRC-IRC-IRC
 Pt  4 Step number   1 out of a maximum of 100
 Modified Bulirsch-Stoer Extrapolation Cycles:
    EPS =    0.000010000000000
      PEZero:  N= 2 I= 1 D=  2.37D-03 Err=  1.53D-04
      PEZero:  N= 3 I= 2 D=  2.37D-03 Err=  1.02D-04
      PEZero:  N= 3 I= 1 D=  4.75D-03 Err=  1.85D-07
 Maximum DWI energy   std dev =  0.000031713 at pt    29
 Maximum DWI gradient std dev =  0.005236597 at pt    47
 CORRECTOR INTEGRATION CONVERGENCE:
   Recorrection delta-x convergence threshold:    0.010000
   Delta-x Convergence Met
 Point Number:   4          Path Number:   1
   CHANGE IN THE REACTION COORDINATE =    0.45576
   NET REACTION COORDINATE UP TO THIS POINT =    1.82299
  # OF POINTS ALONG THE PATH =   4
  # OF STEPS =   1

 Calculating another point on the path.
 IRC-IRC-IRC-IRC-IRC-IRC-IRC-IRC-IRC-IRC-IRC-IRC-IRC-IRC-IRC-IRC-IRC-IRC
                          Input orientation:                          
 ---------------------------------------------------------------------
 Center     Atomic      Atomic             Coordinates (Angstroms)
 Number     Number       Type             X           Y           Z
 ---------------------------------------------------------------------
      1          6           0        0.510831    0.300239   -0.094038
      2          6           0       -0.835018   -0.883822   -0.207994
      3          6           0       -1.880116   -0.053878    0.421133
      4          8           0        1.402213   -0.687905    0.053179
      5          8           0        2.723427    0.426125   -0.027707
      6          8           0       -2.499862    0.793341   -0.190731
      7          1           0        3.031883    0.360528    0.898158
      8          1           0        0.542389    0.834515   -1.048652
      9          1           0        0.416427    0.972546    0.768860
     10          1           0       -2.003638   -0.168979    1.519651
     11          1           0       -0.576860   -1.791019    0.343393
     12          1           0       -0.966217   -1.053709   -1.276741
 ---------------------------------------------------------------------
                    Distance matrix (angstroms):
                    1          2          3          4          5
     1  C    0.000000
     2  C    1.796189   0.000000
     3  C    2.471321   1.475411   0.000000
     4  O    1.338904   2.260928   3.363192   0.000000
     5  O    2.217166   3.796181   4.650212   1.730090   0.000000
     6  O    3.052339   2.363235   1.215007   4.180882   5.238719
     7  H    2.709943   4.210095   4.952476   2.114007   0.978097
     8  H    1.094411   2.357252   2.969518   2.066662   2.442548
     9  H    1.097953   2.442634   2.539404   2.059386   2.501068
    10  H    3.024354   2.204866   1.111417   3.744282   5.009353
    11  H    2.397452   1.092556   2.173056   2.284254   3.993161
    12  H    2.326721   1.090090   2.172015   2.740795   4.166949
                    6          7          8          9         10
     6  O    0.000000
     7  H    5.654486   0.000000
     8  H    3.161173   3.195671   0.000000
     9  H    3.075333   2.689218   1.827093   0.000000
    10  H    2.024279   5.101285   3.753057   2.779116   0.000000
    11  H    3.265293   4.237918   3.175521   2.967311   2.459734
    12  H    2.634972   4.766031   2.427613   3.194041   3.111077
                   11         12
    11  H    0.000000
    12  H    1.822103   0.000000
 Symmetry turned off by external request.
 Stoichiometry    C3H6O3
 Framework group  C1[X(C3H6O3)]
 Deg. of freedom    30
 Full point group                 C1      NOp   1
 Rotational constants (GHZ):          10.8309972           1.5336869           1.4186280
 Standard basis: 6-31+G(d) (6D, 7F)
   126 basis functions,   216 primitive gaussians,   126 cartesian basis functions
    24 alpha electrons       24 beta electrons
       nuclear repulsion energy       229.3106686323 Hartrees.
 NAtoms=   12 NActive=   12 NUniq=   12 SFac= 1.00D+00 NAtFMM=   60 NAOKFM=F Big=F
 Integral buffers will be    131072 words long.
 Raffenetti 2 integral format.
 Two-electron integral symmetry is turned off.
 One-electron integrals computed using PRISM.
 NBasis=   126 RedAO= T EigKep=  1.62D-04  NBF=   126
 NBsUse=   126 1.00D-06 EigRej= -1.00D+00 NBFU=   126
 Initial guess from the checkpoint file:  "/scratch/bell/zhao922/YARP/paper-example/KHP-network/pp_0/IRC-folder/Gau-52167.chk"
 B after Tr=    -0.000679   -0.000539    0.000066
         Rot=    1.000000   -0.000064   -0.000015    0.000064 Ang=  -0.01 deg.
 ExpMin= 4.38D-02 ExpMax= 5.48D+03 ExpMxC= 8.25D+02 IAcc=3 IRadAn=         5 AccDes= 0.00D+00
 Harris functional with IExCor=  402 and IRadAn=       5 diagonalized for initial guess.
 HarFok:  IExCor=  402 AccDes= 0.00D+00 IRadAn=         5 IDoV= 1 UseB2=F ITyADJ=14
 ICtDFT=  3500011 ScaDFX=  1.000000  1.000000  1.000000  1.000000
 FoFCou: FMM=F IPFlag=           0 FMFlag=      100000 FMFlg1=           0
         NFxFlg=           0 DoJE=T BraDBF=F KetDBF=T FulRan=T
         wScrn=  0.000000 ICntrl=       500 IOpCl=  0 I1Cent=   200000004 NGrid=           0
         NMat0=    1 NMatS0=      1 NMatT0=    0 NMatD0=    1 NMtDS0=    0 NMtDT0=    0
 Symmetry not used in FoFCou.
 Keep R1 ints in memory in canonical form, NReq=47237219.
 Requested convergence on RMS density matrix=1.00D-08 within 128 cycles.
 Requested convergence on MAX density matrix=1.00D-06.
 Requested convergence on             energy=1.00D-06.
 No special actions if energy rises.
 SCF Done:  E(RB3LYP) =  -343.443903576     A.U. after   12 cycles
            NFock= 12  Conv=0.98D-08     -V/T= 2.0095
 DoSCS=F DFT=T ScalE2(SS,OS)=  1.000000  1.000000
 Range of M.O.s used for correlation:     1   126
 NBasis=   126 NAE=    24 NBE=    24 NFC=     0 NFV=     0
 NROrb=    126 NOA=    24 NOB=    24 NVA=   102 NVB=   102

 **** Warning!!: The largest alpha MO coefficient is  0.28776768D+02

 Symmetrizing basis deriv contribution to polar:
 IMax=3 JMax=2 DiffMx= 0.00D+00
 G2DrvN: will do    13 centers at a time, making    1 passes.
 Calling FoFCou, ICntrl=  3107 FMM=F I1Cent=   0 AccDes= 0.00D+00.
 End of G2Drv F.D. properties file   721 does not exist.
 End of G2Drv F.D. properties file   722 does not exist.
 End of G2Drv F.D. properties file   788 does not exist.
          IDoAtm=111111111111
          Differentiating once with respect to nuclear coordinates.
 Keep R1 ints in memory in canonical form, NReq=47193241.
          There are    39 degrees of freedom in the 1st order CPHF.  IDoFFX=6 NUNeed=     0.
     33 vectors produced by pass  0 Test12= 6.28D-15 2.56D-09 XBig12= 1.51D-01 1.06D-01.
 AX will form    33 AO Fock derivatives at one time.
     33 vectors produced by pass  1 Test12= 6.28D-15 2.56D-09 XBig12= 2.55D-02 4.48D-02.
     33 vectors produced by pass  2 Test12= 6.28D-15 2.56D-09 XBig12= 6.45D-04 3.68D-03.
     33 vectors produced by pass  3 Test12= 6.28D-15 2.56D-09 XBig12= 3.51D-06 3.15D-04.
     33 vectors produced by pass  4 Test12= 6.28D-15 2.56D-09 XBig12= 3.71D-09 9.07D-06.
     28 vectors produced by pass  5 Test12= 6.28D-15 2.56D-09 XBig12= 3.09D-12 2.61D-07.
      4 vectors produced by pass  6 Test12= 6.28D-15 2.56D-09 XBig12= 2.98D-15 8.30D-09.
 InvSVY:  IOpt=1 It=  1 EMax= 1.33D-15
 Solved reduced A of dimension   197 with    33 vectors.
 End of Minotr F.D. properties file   721 does not exist.
 End of Minotr F.D. properties file   722 does not exist.
 End of Minotr F.D. properties file   788 does not exist.
 Calling FoFJK, ICntrl=    100127 FMM=F ISym2X=0 I1Cent= 0 IOpClX= 0 NMat=1 NMatS=1 NMatT=0.
 -------------------------------------------------------------------
 Center     Atomic                   Forces (Hartrees/Bohr)
 Number     Number              X              Y              Z
 -------------------------------------------------------------------
      1        6          -0.060403918   -0.038458692   -0.006502155
      2        6           0.024073917    0.032825371    0.000413144
      3        6          -0.008417556    0.001962833    0.000215616
      4        8           0.073196162    0.039728794    0.001093779
      5        8          -0.015872350   -0.034332356    0.003266084
      6        8          -0.006799720    0.002550818    0.000812311
      7        1          -0.000294180   -0.003681141   -0.000315988
      8        1          -0.001859259   -0.001009240    0.000948478
      9        1          -0.003436114   -0.002134443   -0.001088023
     10        1          -0.001088146   -0.000108425   -0.000019485
     11        1           0.002114979    0.002740240    0.000212916
     12        1          -0.001213816   -0.000083758    0.000963323
 -------------------------------------------------------------------
 Cartesian Forces:  Max     0.073196162 RMS     0.020673534
 IRC-IRC-IRC-IRC-IRC-IRC-IRC-IRC-IRC-IRC-IRC-IRC-IRC-IRC-IRC-IRC-IRC-IRC
 Pt  5 Step number   1 out of a maximum of 100
 Modified Bulirsch-Stoer Extrapolation Cycles:
    EPS =    0.000010000000000
      PEZero:  N= 2 I= 1 D=  2.37D-03 Err=  1.41D-04
      PEZero:  N= 3 I= 2 D=  2.37D-03 Err=  9.40D-05
      PEZero:  N= 3 I= 1 D=  4.75D-03 Err=  2.06D-07
 Maximum DWI energy   std dev =  0.000031558 at pt    19
 Maximum DWI gradient std dev =  0.004243642 at pt    47
 CORRECTOR INTEGRATION CONVERGENCE:
   Recorrection delta-x convergence threshold:    0.010000
   Delta-x Convergence Met
 Point Number:   5          Path Number:   1
   CHANGE IN THE REACTION COORDINATE =    0.45577
   NET REACTION COORDINATE UP TO THIS POINT =    2.27876
  # OF POINTS ALONG THE PATH =   5
  # OF STEPS =   1

 Calculating another point on the path.
 IRC-IRC-IRC-IRC-IRC-IRC-IRC-IRC-IRC-IRC-IRC-IRC-IRC-IRC-IRC-IRC-IRC-IRC
                          Input orientation:                          
 ---------------------------------------------------------------------
 Center     Atomic      Atomic             Coordinates (Angstroms)
 Number     Number       Type             X           Y           Z
 ---------------------------------------------------------------------
      1          6           0        0.476614    0.277249   -0.097922
      2          6           0       -0.820234   -0.864102   -0.207466
      3          6           0       -1.885131   -0.052657    0.421269
      4          8           0        1.434828   -0.669948    0.053567
      5          8           0        2.715168    0.410522   -0.026301
      6          8           0       -2.503090    0.794493   -0.190369
      7          1           0        3.029357    0.334912    0.896456
      8          1           0        0.528652    0.827675   -1.043004
      9          1           0        0.391254    0.956662    0.761638
     10          1           0       -2.012542   -0.170529    1.519392
     11          1           0       -0.562669   -1.771978    0.345033
     12          1           0       -0.974281   -1.054125   -1.270743
 ---------------------------------------------------------------------
                    Distance matrix (angstroms):
                    1          2          3          4          5
     1  C    0.000000
     2  C    1.731040   0.000000
     3  C    2.440541   1.479107   0.000000
     4  O    1.355841   2.278407   3.396820   0.000000
     5  O    2.243660   3.762519   4.645170   1.677219   0.000000
     6  O    3.025678   2.362888   1.213935   4.208479   5.234937
     7  H    2.740184   4.180387   4.952596   2.064638   0.977707
     8  H    1.094923   2.319424   2.957267   2.065550   2.447152
     9  H    1.098969   2.392081   2.513266   2.058221   2.513900
    10  H    3.002018   2.210131   1.111756   3.779209   5.007796
    11  H    2.340011   1.093541   2.170434   2.299873   3.955427
    12  H    2.291979   1.091054   2.166909   2.775824   4.160032
                    6          7          8          9         10
     6  O    0.000000
     7  H    5.656888   0.000000
     8  H    3.149532   3.202787   0.000000
     9  H    3.051204   2.713732   1.814456   0.000000
    10  H    2.023657   5.105318   3.744323   2.760975   0.000000
    11  H    3.261696   4.200679   3.142582   2.920446   2.458839
    12  H    2.630942   4.759758   2.419059   3.168364   3.105412
                   11         12
    11  H    0.000000
    12  H    1.815342   0.000000
 Symmetry turned off by external request.
 Stoichiometry    C3H6O3
 Framework group  C1[X(C3H6O3)]
 Deg. of freedom    30
 Full point group                 C1      NOp   1
 Rotational constants (GHZ):          11.1774041           1.5307618           1.4215584
 Standard basis: 6-31+G(d) (6D, 7F)
   126 basis functions,   216 primitive gaussians,   126 cartesian basis functions
    24 alpha electrons       24 beta electrons
       nuclear repulsion energy       230.1217236946 Hartrees.
 NAtoms=   12 NActive=   12 NUniq=   12 SFac= 1.00D+00 NAtFMM=   60 NAOKFM=F Big=F
 Integral buffers will be    131072 words long.
 Raffenetti 2 integral format.
 Two-electron integral symmetry is turned off.
 One-electron integrals computed using PRISM.
 NBasis=   126 RedAO= T EigKep=  1.60D-04  NBF=   126
 NBsUse=   126 1.00D-06 EigRej= -1.00D+00 NBFU=   126
 Initial guess from the checkpoint file:  "/scratch/bell/zhao922/YARP/paper-example/KHP-network/pp_0/IRC-folder/Gau-52167.chk"
 B after Tr=    -0.000860   -0.000605    0.000083
         Rot=    1.000000   -0.000089   -0.000007    0.000056 Ang=  -0.01 deg.
 ExpMin= 4.38D-02 ExpMax= 5.48D+03 ExpMxC= 8.25D+02 IAcc=3 IRadAn=         5 AccDes= 0.00D+00
 Harris functional with IExCor=  402 and IRadAn=       5 diagonalized for initial guess.
 HarFok:  IExCor=  402 AccDes= 0.00D+00 IRadAn=         5 IDoV= 1 UseB2=F ITyADJ=14
 ICtDFT=  3500011 ScaDFX=  1.000000  1.000000  1.000000  1.000000
 FoFCou: FMM=F IPFlag=           0 FMFlag=      100000 FMFlg1=           0
         NFxFlg=           0 DoJE=T BraDBF=F KetDBF=T FulRan=T
         wScrn=  0.000000 ICntrl=       500 IOpCl=  0 I1Cent=   200000004 NGrid=           0
         NMat0=    1 NMatS0=      1 NMatT0=    0 NMatD0=    1 NMtDS0=    0 NMtDT0=    0
 Symmetry not used in FoFCou.
 Keep R1 ints in memory in canonical form, NReq=47237219.
 Requested convergence on RMS density matrix=1.00D-08 within 128 cycles.
 Requested convergence on MAX density matrix=1.00D-06.
 Requested convergence on             energy=1.00D-06.
 No special actions if energy rises.
 SCF Done:  E(RB3LYP) =  -343.459124316     A.U. after   12 cycles
            NFock= 12  Conv=0.67D-08     -V/T= 2.0095
 DoSCS=F DFT=T ScalE2(SS,OS)=  1.000000  1.000000
 Range of M.O.s used for correlation:     1   126
 NBasis=   126 NAE=    24 NBE=    24 NFC=     0 NFV=     0
 NROrb=    126 NOA=    24 NOB=    24 NVA=   102 NVB=   102

 **** Warning!!: The largest alpha MO coefficient is  0.30295127D+02

 Symmetrizing basis deriv contribution to polar:
 IMax=3 JMax=2 DiffMx= 0.00D+00
 G2DrvN: will do    13 centers at a time, making    1 passes.
 Calling FoFCou, ICntrl=  3107 FMM=F I1Cent=   0 AccDes= 0.00D+00.
 End of G2Drv F.D. properties file   721 does not exist.
 End of G2Drv F.D. properties file   722 does not exist.
 End of G2Drv F.D. properties file   788 does not exist.
          IDoAtm=111111111111
          Differentiating once with respect to nuclear coordinates.
 Keep R1 ints in memory in canonical form, NReq=47193241.
          There are    39 degrees of freedom in the 1st order CPHF.  IDoFFX=6 NUNeed=     0.
     33 vectors produced by pass  0 Test12= 6.28D-15 2.56D-09 XBig12= 1.30D-01 1.03D-01.
 AX will form    33 AO Fock derivatives at one time.
     33 vectors produced by pass  1 Test12= 6.28D-15 2.56D-09 XBig12= 2.78D-02 5.26D-02.
     33 vectors produced by pass  2 Test12= 6.28D-15 2.56D-09 XBig12= 7.49D-04 3.47D-03.
     33 vectors produced by pass  3 Test12= 6.28D-15 2.56D-09 XBig12= 3.87D-06 3.22D-04.
     33 vectors produced by pass  4 Test12= 6.28D-15 2.56D-09 XBig12= 4.34D-09 1.11D-05.
     28 vectors produced by pass  5 Test12= 6.28D-15 2.56D-09 XBig12= 3.56D-12 2.52D-07.
      3 vectors produced by pass  6 Test12= 6.28D-15 2.56D-09 XBig12= 3.41D-15 8.41D-09.
 InvSVY:  IOpt=1 It=  1 EMax= 1.78D-15
 Solved reduced A of dimension   196 with    33 vectors.
 End of Minotr F.D. properties file   721 does not exist.
[...]
  14                   -1.07598   0.72172   1.16380   0.69632  -1.76351
  15                   -1.05771   0.72800   1.13160   0.72122  -1.84067
  16                   -1.04292   0.73185   1.10437   0.74028  -1.90588
  17                   -1.03312   0.72990   1.08858   0.75214  -1.94395
  18                   -1.02787   0.71978   1.07997   0.75912  -1.96219
  19                   -1.02565   0.70139   1.07296   0.76454  -1.97268
  20                   -1.02599   0.67626   1.06601   0.76968  -1.97945
  21                   -1.02839   0.64752   1.05895   0.77486  -1.98398
  22                   -1.03223   0.61805   1.05190   0.78002  -1.98703
  23                   -1.03693   0.58991   1.04505   0.78499  -1.98902
  24                   -1.04208   0.56450   1.03863   0.78957  -1.99017
  25                   -1.04729   0.54278   1.03282   0.79351  -1.99065
  26                   -1.05221   0.52528   1.02778   0.79651  -1.99059
  27                   -1.05645   0.51203   1.02354   0.79824  -1.99013
  28                   -1.05951   0.50230   1.01988   0.79832  -1.98950
  29                   -1.06139   0.49362   1.01605   0.79683  -1.98915
  30                   -1.06154   0.48422   1.01131   0.79356  -1.98930
  31                   -1.06031   0.47265   1.00513   0.78888  -1.99043
  32                   -1.05747   0.45734   0.99663   0.78285  -1.99301
  33                   -1.05339   0.43836   0.98570   0.77601  -1.99734
  34                   -1.04839   0.41610   0.97231   0.76878  -2.00376
  35                   -1.04280   0.39096   0.95643   0.76161  -2.01267
  36                   -1.03698   0.36348   0.93795   0.75499  -2.02477
  37                   -1.03123   0.33471   0.91667   0.74956  -2.04142
  38                   -1.02570   0.30783   0.89232   0.74659  -2.06690
  39                   -1.02015   0.30435   0.87109   0.74969  -2.11499
  40                   -1.00748   0.33192   0.86193   0.76536  -2.17373
  41                   -0.97605   0.36102   0.84878   0.80085  -2.21796
  42                   -0.92698   0.38647   0.82621   0.85251  -2.24058
  43                   -0.86769   0.40948   0.79466   0.91092  -2.24687
  44                   -0.80372   0.43171   0.75715   0.96997  -2.24290
  45                   -0.73833   0.45395   0.71663   1.02663  -2.23251
  46                   -0.67372   0.47633   0.67547   1.07925  -2.21762
  47                   -0.61228   0.49843   0.63597   1.12633  -2.19841
  48                   -0.55732   0.51927   0.60078   1.16594  -2.17402
  49                   -0.51286   0.53757   0.57287   1.19596  -2.14409
  50                   -0.48158   0.55251   0.55427   1.21545  -2.11004
  51                   -0.46286   0.56423   0.54468   1.22563  -2.07442
  52                   -0.45384   0.57350   0.54221   1.22894  -2.03923
                          Y10       Z10       X11       Y11       Z11
   1                    0.35543   1.44033  -0.97016  -1.85295  -0.18290
   2                    0.29953   1.46138  -0.96102  -1.86989  -0.17067
   3                    0.24381   1.47966  -0.95186  -1.88715  -0.15961
   4                    0.18817   1.49523  -0.94263  -1.90468  -0.14979
   5                    0.13297   1.50799  -0.93338  -1.92243  -0.14105
   6                    0.07900   1.51785  -0.92426  -1.94034  -0.13301
   7                    0.02783   1.52472  -0.91563  -1.95830  -0.12493
   8                   -0.01887   1.52873  -0.90804  -1.97607  -0.11637
   9                   -0.05700   1.53020  -0.90252  -1.99331  -0.10553
  10                   -0.08160   1.53010  -0.90032  -2.00938  -0.09025
  11                   -0.08917   1.53069  -0.90199  -2.02318  -0.06550
  12                   -0.08873   1.53638  -0.90569  -2.03195  -0.02232
  13                   -0.10044   1.54363  -0.90824  -2.03322   0.03206
  14                   -0.12432   1.54451  -0.90818  -2.02958   0.08709
  15                   -0.15256   1.53839  -0.90453  -2.02392   0.13967
  16                   -0.17420   1.52940  -0.89896  -2.02045   0.18323
  17                   -0.18131   1.52390  -0.89795  -2.02189   0.20979
  18                   -0.18165   1.52160  -0.89976  -2.02437   0.22527
  19                   -0.18085   1.52040  -0.89895  -2.02483   0.23744
  20                   -0.18019   1.51955  -0.89308  -2.02239   0.24876
  21                   -0.17982   1.51884  -0.88171  -2.01697   0.25983
  22                   -0.17966   1.51821  -0.86531  -2.00876   0.27072
  23                   -0.17958   1.51763  -0.84451  -1.99784   0.28139
  24                   -0.17949   1.51715  -0.82005  -1.98431   0.29165
  25                   -0.17927   1.51680  -0.79282  -1.96837   0.30128
  26                   -0.17880   1.51662  -0.76391  -1.95040   0.31004
  27                   -0.17797   1.51666  -0.73449  -1.93097   0.31775
  28                   -0.17667   1.51694  -0.70575  -1.91076   0.32428
  29                   -0.17512   1.51737  -0.67848  -1.89024   0.32969
  30                   -0.17324   1.51794  -0.65356  -1.86988   0.33397
  31                   -0.17142   1.51851  -0.63075  -1.84965   0.33734
  32                   -0.16987   1.51905  -0.61066  -1.82978   0.33983
  33                   -0.16895   1.51947  -0.59286  -1.81026   0.34175
  34                   -0.16903   1.51962  -0.57699  -1.79101   0.34338
  35                   -0.17061   1.51934  -0.56275  -1.77195   0.34505
  36                   -0.17439   1.51836  -0.54996  -1.75301   0.34725
  37                   -0.18156   1.51614  -0.53875  -1.73423   0.35090
  38                   -0.19506   1.51112  -0.53056  -1.71581   0.35869
  39                   -0.22133   1.49760  -0.53562  -1.69898   0.38136
  40                   -0.24818   1.48033  -0.54741  -1.68039   0.41454
  41                   -0.26078   1.46836  -0.55174  -1.66113   0.44443
  42                   -0.25363   1.46422  -0.55500  -1.64642   0.46767
  43                   -0.23026   1.46621  -0.56158  -1.63718   0.48352
  44                   -0.19581   1.47171  -0.57139  -1.63131   0.49357
  45                   -0.15406   1.47865  -0.58316  -1.62664   0.49929
  46                   -0.10722   1.48578  -0.59576  -1.62160   0.50128
  47                   -0.05601   1.49246  -0.60834  -1.61514   0.49928
  48                   -0.00045   1.49829  -0.62018  -1.60655   0.49254
  49                    0.05877   1.50266  -0.63056  -1.59549   0.48060
  50                    0.11952   1.50482  -0.63894  -1.58213   0.46421
  51                    0.17964   1.50424  -0.64528  -1.56702   0.44490
  52                    0.23821   1.50079  -0.65000  -1.55076   0.42399
                          X12       Y12       Z12
   1                   -0.74421  -0.60854  -1.42897
   2                   -0.74416  -0.62725  -1.42240
   3                   -0.74341  -0.64571  -1.41636
   4                   -0.74201  -0.66389  -1.41089
   5                   -0.73998  -0.68191  -1.40600
   6                   -0.73749  -0.70008  -1.40165
   7                   -0.73483  -0.71899  -1.39778
   8                   -0.73236  -0.73891  -1.39435
   9                   -0.73096  -0.76113  -1.39101
  10                   -0.73227  -0.78680  -1.38723
  11                   -0.74092  -0.81785  -1.38096
  12                   -0.76680  -0.85475  -1.36635
  13                   -0.80103  -0.89125  -1.34473
  14                   -0.82686  -0.92776  -1.32321
  15                   -0.84210  -0.96474  -1.30320
  16                   -0.84908  -0.99760  -1.28642
  17                   -0.85260  -1.01892  -1.27811
  18                   -0.85545  -1.03021  -1.27712
  19                   -0.85809  -1.03641  -1.27859
  20                   -0.86076  -1.03982  -1.28059
  21                   -0.86367  -1.04156  -1.28249
  22                   -0.86703  -1.04230  -1.28413
  23                   -0.87099  -1.04243  -1.28552
  24                   -0.87572  -1.04225  -1.28669
  25                   -0.88136  -1.04202  -1.28768
  26                   -0.88806  -1.04201  -1.28849
  27                   -0.89590  -1.04245  -1.28910
  28                   -0.90496  -1.04353  -1.28941
  29                   -0.91463  -1.04494  -1.28932
  30                   -0.92522  -1.04691  -1.28869
  31                   -0.93594  -1.04893  -1.28729
  32                   -0.94665  -1.05094  -1.28487
  33                   -0.95687  -1.05260  -1.28129
  34                   -0.96618  -1.05370  -1.27648
  35                   -0.97422  -1.05410  -1.27049
  36                   -0.98068  -1.05389  -1.26341
  37                   -0.98536  -1.05360  -1.25537
  38                   -0.98801  -1.05540  -1.24610
  39                   -0.98529  -1.06691  -1.23248
  40                   -0.97310  -1.07605  -1.21324
  41                   -0.95590  -1.07420  -1.19330
  42                   -0.93650  -1.06456  -1.17697
  43                   -0.91848  -1.04928  -1.16512
  44                   -0.90271  -1.02997  -1.15659
  45                   -0.88877  -1.00756  -1.15035
  46                   -0.87623  -0.98233  -1.14603
  47                   -0.86502  -0.95414  -1.14391
  48                   -0.85554  -0.92295  -1.14480
  49                   -0.84846  -0.88949  -1.14939
  50                   -0.84409  -0.85526  -1.15757
  51                   -0.84207  -0.82162  -1.16841
  52                   -0.84171  -0.78905  -1.18094
 --------------------------------------------------------------------------
 
 Total number of points:                   51
 Total number of gradient calculations:    74
 Total number of Hessian calculations:     52
 IRC-IRC-IRC-IRC-IRC-IRC-IRC-IRC-IRC-IRC-IRC-IRC-IRC-IRC-IRC-IRC-IRC-IRC
                          Input orientation:                          
 ---------------------------------------------------------------------
 Center     Atomic      Atomic             Coordinates (Angstroms)
 Number     Number       Type             X           Y           Z
 ---------------------------------------------------------------------
      1          6           0        1.335281    0.468325   -0.323655
      2          6           0       -0.664390   -0.812226   -0.350102
      3          6           0       -1.635346    0.081912    0.411763
      4          8           0        0.666645   -0.709823    0.121076
      5          8           0        2.645172    0.447518    0.136643
      6          8           0       -2.701071    0.448903   -0.032555
      7          1           0        2.636564    0.418374    1.107489
      8          1           0        1.388779    0.484457   -1.419450
      9          1           0        0.786655    1.358079    0.033300
     10          1           0       -1.310716    0.356112    1.440161
     11          1           0       -0.970095   -1.853125   -0.181778
     12          1           0       -0.744249   -0.609511   -1.428648
 ---------------------------------------------------------------------
                    Distance matrix (angstroms):
                    1          2          3          4          5
     1  C    0.000000
     2  C    2.374699   0.000000
     3  C    3.084604   1.524033   0.000000
     4  O    1.425795   1.415681   2.451634   0.000000
     5  O    1.388569   3.574504   4.304904   2.292215   0.000000
     6  O    4.046881   2.416474   1.211556   3.564794   5.348920
     7  H    1.934943   3.812512   4.341251   2.475160   0.971321
     8  H    1.097218   2.653374   3.558190   2.078702   2.000328
     9  H    1.104567   2.638703   2.763680   2.073240   2.072169
    10  H    3.181970   2.233337   1.112732   2.605026   4.166121
    11  H    3.274755   1.097843   2.130544   2.019351   4.297035
    12  H    2.589823   1.100333   2.158526   2.098173   3.880158
                    6          7          8          9         10
     6  O    0.000000
     7  H    5.458111   0.000000
     8  H    4.318751   2.818998   0.000000
     9  H    3.604882   2.336470   1.798957   0.000000
    10  H    2.027459   3.961763   3.934605   2.717014   0.000000
    11  H    2.884073   4.453078   3.544067   3.666642   2.761781
    12  H    2.626493   4.349533   2.397219   2.890047   3.079510
                   11         12
    11  H    0.000000
    12  H    1.775463   0.000000
 Symmetry turned off by external request.
 Stoichiometry    C3H6O3
 Framework group  C1[X(C3H6O3)]
 Deg. of freedom    30
 Full point group                 C1      NOp   1
 Rotational constants (GHZ):          11.5361419           1.5798068           1.4901580

 **********************************************************************

            Population analysis using the SCF Density.

 **********************************************************************

 Alpha  occ. eigenvalues --  -19.18938 -19.18714 -19.18269 -10.30777 -10.30282
 Alpha  occ. eigenvalues --  -10.26871  -1.09598  -1.07496  -1.03594  -0.76409
 Alpha  occ. eigenvalues --   -0.68845  -0.61372  -0.55799  -0.53629  -0.50866
 Alpha  occ. eigenvalues --   -0.47968  -0.46360  -0.45573  -0.40071  -0.38240
 Alpha  occ. eigenvalues --   -0.36744  -0.32732  -0.30765  -0.27143
 Alpha virt. eigenvalues --   -0.05883  -0.00468   0.00897   0.01923   0.02436
 Alpha virt. eigenvalues --    0.04541   0.05824   0.06408   0.07019   0.08375
 Alpha virt. eigenvalues --    0.10649   0.11162   0.13469   0.15261   0.16209
 Alpha virt. eigenvalues --    0.17606   0.19025   0.19502   0.20514   0.21497
 Alpha virt. eigenvalues --    0.21812   0.22840   0.24077   0.25566   0.26215
 Alpha virt. eigenvalues --    0.27277   0.27883   0.28760   0.29804   0.30426
 Alpha virt. eigenvalues --    0.32620   0.33545   0.35221   0.36285   0.38619
 Alpha virt. eigenvalues --    0.44724   0.60250   0.63916   0.64448   0.66408
 Alpha virt. eigenvalues --    0.72666   0.75644   0.77431   0.79764   0.86366
 Alpha virt. eigenvalues --    0.89480   0.90873   0.93605   0.99402   1.01890
 Alpha virt. eigenvalues --    1.04604   1.08346   1.11301   1.15835   1.16610
 Alpha virt. eigenvalues --    1.22036   1.25318   1.25616   1.27600   1.28144
 Alpha virt. eigenvalues --    1.31870   1.33094   1.43926   1.45077   1.49618
 Alpha virt. eigenvalues --    1.51339   1.52527   1.60540   1.65080   1.70398
 Alpha virt. eigenvalues --    1.72323   1.73087   1.76616   1.78014   1.85018
 Alpha virt. eigenvalues --    1.94933   1.98756   2.00895   2.04412   2.06445
 Alpha virt. eigenvalues --    2.08927   2.14016   2.21636   2.22355   2.31108
 Alpha virt. eigenvalues --    2.37511   2.39474   2.47955   2.57566   2.60657
 Alpha virt. eigenvalues --    2.66478   2.72077   2.87345   2.93185   3.00207
 Alpha virt. eigenvalues --    3.07483   4.05621   4.13854   4.18221   4.26772
 Alpha virt. eigenvalues --    4.37807   4.46833
          Condensed to atoms (all electrons):
               1          2          3          4          5          6
     1  C    4.946593  -0.134038  -0.004344   0.141196   0.223404  -0.002866
     2  C   -0.134038   5.664694   0.061779   0.124069  -0.005832  -0.099333
     3  C   -0.004344   0.061779   5.112885  -0.047485   0.010447   0.417143
     4  O    0.141196   0.124069  -0.047485   8.415276  -0.047059   0.004558
     5  O    0.223404  -0.005832   0.010447  -0.047059   8.347576  -0.000040
     6  O   -0.002866  -0.099333   0.417143   0.004558  -0.000040   8.079797
     7  H    0.002131   0.008754  -0.009373  -0.002367   0.188550   0.000032
     8  H    0.427402   0.020792  -0.030184  -0.056201  -0.066797   0.000625
     9  H    0.375711  -0.018364   0.033622  -0.067695  -0.044297  -0.001212
    10  H    0.010124  -0.134260   0.389139   0.012372  -0.000153  -0.056811
    11  H    0.002840   0.370679  -0.010380  -0.052398  -0.000639  -0.001963
    12  H   -0.001932   0.433478  -0.096476  -0.045207  -0.000702   0.004581
               7          8          9         10         11         12
     1  C    0.002131   0.427402   0.375711   0.010124   0.002840  -0.001932
     2  C    0.008754   0.020792  -0.018364  -0.134260   0.370679   0.433478
     3  C   -0.009373  -0.030184   0.033622   0.389139  -0.010380  -0.096476
     4  O   -0.002367  -0.056201  -0.067695   0.012372  -0.052398  -0.045207
     5  O    0.188550  -0.066797  -0.044297  -0.000153  -0.000639  -0.000702
     6  O    0.000032   0.000625  -0.001212  -0.056811  -0.001963   0.004581
     7  H    0.351632   0.007706  -0.009704   0.000037  -0.000003   0.000042
     8  H    0.007706   0.562130  -0.060591   0.000170  -0.000067   0.008569
     9  H   -0.009704  -0.060591   0.632049  -0.001123  -0.000349  -0.001880
    10  H    0.000037   0.000170  -0.001123   0.602784   0.001473   0.003637
    11  H   -0.000003  -0.000067  -0.000349   0.001473   0.485755  -0.026249
    12  H    0.000042   0.008569  -0.001880   0.003637  -0.026249   0.505456
 Mulliken charges:
               1
     1  C    0.013779
     2  C   -0.292417
     3  C    0.173227
     4  O   -0.379059
     5  O   -0.604457
     6  O   -0.344511
     7  H    0.462564
     8  H    0.186447
     9  H    0.163834
    10  H    0.172611
    11  H    0.231299
    12  H    0.216684
 Sum of Mulliken charges =  -0.00000
 Mulliken charges with hydrogens summed into heavy atoms:
               1
     1  C    0.364059
     2  C    0.155566
     3  C    0.345838
     4  O   -0.379059
     5  O   -0.141893
     6  O   -0.344511
 APT charges:
               1
     1  C   -0.478623
     2  C   -0.767615
     3  C   -0.366220
     4  O   -0.304365
     5  O   -0.743852
     6  O   -0.007252
     7  H    0.656248
     8  H    0.426097
     9  H    0.308566
    10  H    0.338052
    11  H    0.537148
    12  H    0.401815
 Sum of APT charges =  -0.00000
 APT charges with hydrogens summed into heavy atoms:
               1
     1  C    0.256039
     2  C    0.171348
     3  C   -0.028167
     4  O   -0.304365
     5  O   -0.087604
     6  O   -0.007252
 Electronic spatial extent (au):  <R**2>=            762.3036
 Charge=             -0.0000 electrons
 Dipole moment (field-independent basis, Debye):
    X=              0.6663    Y=             -0.1067    Z=              0.9396  Tot=              1.1568
 Quadrupole moment (field-independent basis, Debye-Ang):
   XX=            -50.5127   YY=            -36.0240   ZZ=            -31.9687
   XY=              4.4236   XZ=              1.7173   YZ=              1.2657
 Traceless Quadrupole moment (field-independent basis, Debye-Ang):
   XX=            -11.0109   YY=              3.4778   ZZ=              7.5331
   XY=              4.4236   XZ=              1.7173   YZ=              1.2657
 Octapole moment (field-independent basis, Debye-Ang**2):
  XXX=             17.6110  YYY=             -2.5278  ZZZ=              3.5491  XYY=             -3.3112
  XXY=             -9.3758  XXZ=             14.4464  XZZ=              7.2638  YZZ=              1.6854
  YYZ=              0.5747  XYZ=              1.6634
 Hexadecapole moment (field-independent basis, Debye-Ang**3):
 XXXX=           -889.4095 YYYY=           -114.5467 ZZZZ=            -71.6645 XXXY=             -4.1980
 XXXZ=             32.8501 YYYX=            -12.8125 YYYZ=             -4.9205 ZZZX=              9.6774
 ZZZY=             -2.9636 XXYY=           -150.3471 XXZZ=           -115.1603 YYZZ=            -33.1964
 XXYZ=              1.9698 YYXZ=              2.2509 ZZXY=             -2.2260
 N-N= 2.361036525684D+02 E-N=-1.276592239166D+03  KE= 3.404594390894D+02
  Exact polarizability:   0.000   0.000   0.000   0.000   0.000   0.000
 Approx polarizability:  74.586  -4.368  55.383   7.748  -0.176  61.340

 This type of calculation cannot be archived.


 "MATHEMATICS IS THE ART OF GIVING THE SAME NAME
 TO DIFFERENT THINGS."
                    - H. POINCARE
 Job cpu time:       0 days  4 hours  5 minutes 26.0 seconds.
 Elapsed time:       0 days  0 hours 15 minutes 57.8 seconds.
 File lengths (MBytes):  RWF=     28 Int=      0 D2E=      0 Chk=      4 Scr=      1
 Normal termination of Gaussian 16 at Wed Dec 23 22:32:59 2020.
