 Entering Gaussian System, Link 0=g16
 Initial command:
 /apps/cent7/gaussian/g16-B.01/g16-haswell/g16/l1.exe "/scratch/bell/zhao922/YARP/paper-example/KHP-network/pp_0/IRC-folder/Gau-52561.inp" -scrdir="/scratch/bell/zhao922/YARP/paper-example/KHP-network/pp_0/IRC-folder/"
 Entering Link 1 = /apps/cent7/gaussian/g16-B.01/g16-haswell/g16/l1.exe PID=     52563.
  
 Copyright (c) 1988-2017, Gaussian, Inc.  All Rights Reserved.
  
 This is part of the Gaussian(R) 16 program.  It is based on
 the Gaussian(R) 09 system (copyright 2009, Gaussian, Inc.),
 the Gaussian(R) 03 system (copyright 2003, Gaussian, Inc.),
 the Gaussian(R) 98 system (copyright 1998, Gaussian, Inc.),
 the Gaussian(R) 94 system (copyright 1995, Gaussian, Inc.),
 the Gaussian 92(TM) system (copyright 1992, Gaussian, Inc.),
 the Gaussian 90(TM) system (copyright 1990, Gaussian, Inc.),
 the Gaussian 88(TM) system (copyright 1988, Gaussian, Inc.),
 the Gaussian 86(TM) system (copyright 1986, Carnegie Mellon
 University), and the Gaussian 82(TM) system (copyright 1983,
 Carnegie Mellon University). Gaussian is a federally registered
 trademark of Gaussian, Inc.
  
 This software contains proprietary and confidential information,
 including trade secrets, belonging to Gaussian, Inc.
  
 This software is provided under written license and may be
 used, copied, transmitted, or stored only in accord with that
 written license.
  
 The following legend is applicable only to US Government
 contracts under FAR:
  
                    RESTRICTED RIGHTS LEGEND
  
 Use, reproduction and disclosure by the US Government is
 subject to restrictions as set forth in subparagraphs (a)
 and (c) of the Commercial Computer Software - Restricted
 Rights clause in FAR 52.227-19.
  
 Gaussian, Inc.
 340 Quinnipiac St., Bldg. 40, Wallingford CT 06492
  
  
 ---------------------------------------------------------------
 Warning -- This program may not be used in any manner that
 competes with the business of Gaussian, Inc. or will provide
 assistance to any competitor of Gaussian, Inc.  The licensee
 of this program is prohibited from giving any competitor of
 Gaussian, Inc. access to this program.  By using this program,
 the user acknowledges that Gaussian, Inc. is engaged in the
 business of creating and licensing software in the field of
 computational chemistry and represents and warrants to the
 licensee that it is not a competitor of Gaussian, Inc. and that
 it will not use this program in any manner prohibited above.
 ---------------------------------------------------------------
  

 Cite this work as:
 Gaussian 16, Revision B.01,
 M. J. Frisch, G. W. Trucks, H. B. Schlegel, G. E. Scuseria, 
 M. A. Robb, J. R. Cheeseman, G. Scalmani, V. Barone, 
 G. A. Petersson, H. Nakatsuji, X. Li, M. Caricato, A. V. Marenich, 
 J. Bloino, B. G. Janesko, R. Gomperts, B. Mennucci, H. P. Hratchian, 
 J. V. Ortiz, A. F. Izmaylov, J. L. Sonnenberg, D. Williams-Young, 
 F. Ding, F. Lipparini, F. Egidi, J. Goings, B. Peng, A. Petrone, 
 T. Henderson, D. Ranasinghe, V. G. Zakrzewski, J. Gao, N. Rega, 
 G. Zheng, W. Liang, M. Hada, M. Ehara, K. Toyota, R. Fukuda, 
 J. Hasegawa, M. Ishida, T. Nakajima, Y. Honda, O. Kitao, H. Nakai, 
 T. Vreven, K. Throssell, J. A. Montgomery, Jr., J. E. Peralta, 
 F. Ogliaro, M. J. Bearpark, J. J. Heyd, E. N. Brothers, K. N. Kudin, 
 V. N. Staroverov, T. A. Keith, R. Kobayashi, J. Normand, 
 K. Raghavachari, A. P. Rendell, J. C. Burant, S. S. Iyengar, 
 J. Tomasi, M. Cossi, J. M. Millam, M. Klene, C. Adamo, R. Cammi, 
 J. W. Ochterski, R. L. Martin, K. Morokuma, O. Farkas, 
 J. B. Foresman, and D. J. Fox, Gaussian, Inc., Wallingford CT, 2016.
 
 ******************************************
 Gaussian 16:  ES64L-G16RevB.01 20-Dec-2017
                23-Dec-2020 
 ******************************************
 %NProcShared=16
 Will use up to   16 processors via shared memory.
 %Mem=6GB
 ----------------------------------------------------------------------
 # B3LYP/6-31+G* IRC=(CALCALL, maxpoints=40, StepSize=15, maxcyc=100, R
 eport=Cartesians)
 ----------------------------------------------------------------------
 1/6=100,10=4,18=10,26=3,38=1,39=15,42=40,44=3,71=1,129=10,172=1/1,23;
 2/12=2,17=6,18=5,29=1,40=1/2;
 3/5=1,6=6,7=11,11=2,25=1,30=1,71=2,74=-5,140=1/1,2,3;
 4//1;
 5/5=2,38=5/2;
 8/6=4,10=90,11=11/1;
 11/6=1,8=1,9=11,15=111,16=1/1,2,10;
 10/6=1,13=1/2;
 6/7=2,8=2,9=2,10=2,18=1,28=1/1;
 7/10=1,25=1/1,2,3,16;
 1/6=100,10=4,18=10,26=3,39=15,42=40,44=3,71=1,129=10/23(2);
 2/29=1/2;
 99/5=20/99;
 2/29=1/2;
 3/5=1,6=6,7=11,11=2,25=1,30=1,71=2,74=-5,140=1/1,2,3;
 4/5=5,16=3,69=1/1;
 5/5=2,38=5/2;
 8/6=4,10=90,11=11/1;
 11/6=1,8=1,9=11,15=111,16=1/1,2,10;
 10/6=1,13=1/2;
 7/10=1,25=1/1,2,3,16;
 1/6=100,10=4,18=10,26=3,39=15,42=40,44=3,71=1,129=10/23(-8);
 2/29=1/2;
 6/7=2,8=2,9=2,10=2,18=1,19=2,28=1/1;
 99/5=20/99;
 ----------
 pp_6_0 IRC
 ----------
 Symbolic Z-matrix:
 Charge =  0 Multiplicity = 1
 C                    -2.17381   0.74192   0.13505 
 C                     0.98812  -1.05197   0.04081 
 C                     2.03106   0.07384  -0.09422 
 O                    -2.09773  -0.43461  -0.43591 
 O                    -0.25482  -0.58679   0.36618 
 O                     1.79567   1.25553  -0.06953 
 H                    -1.04577   0.75077   0.60657 
 H                    -2.15274   1.61164  -0.54398 
 H                    -2.84111   0.81799   1.00941 
 H                     3.06739  -0.31083  -0.21773 
 H                     0.96192  -1.51323  -0.96694 
 H                     1.39315  -1.81207   0.73695 
 
 IRC-IRC-IRC-IRC-IRC-IRC-IRC-IRC-IRC-IRC-IRC-IRC-IRC-IRC-IRC-IRC-IRC-IRC
 ------------------------------------------------------------------------
 INPUT DATA FOR L123
 ------------------------------------------------------------------------
 GENERAL PARAMETERS:
 Follow reaction path in both directions.
 Maximum points per path      =  40
 Step size                    =   0.150 bohr
 Integration scheme           = HPC                                 
    Redo corrector integration= Yes                                 
    DWI Weight Power          =  2
    DWI will use Hessian update vectors when possible.
    Max correction cycles     = 100
 Initial Hessian              = CalcFC
 Hessian evaluation           = Analytic at all predictor steps
                              = Update at all corrector steps
 Hessian updating method      = Bofill                              
 ------------------------------------------------------------------------
 IRC-IRC-IRC-IRC-IRC-IRC-IRC-IRC-IRC-IRC-IRC-IRC-IRC-IRC-IRC-IRC-IRC-IRC
                          Input orientation:                          
 ---------------------------------------------------------------------
 Center     Atomic      Atomic             Coordinates (Angstroms)
 Number     Number       Type             X           Y           Z
 ---------------------------------------------------------------------
      1          6           0       -2.173814    0.741918    0.135052
      2          6           0        0.988115   -1.051969    0.040814
      3          6           0        2.031056    0.073837   -0.094224
      4          8           0       -2.097729   -0.434611   -0.435912
      5          8           0       -0.254815   -0.586789    0.366175
      6          8           0        1.795671    1.255526   -0.069529
      7          1           0       -1.045766    0.750771    0.606565
      8          1           0       -2.152737    1.611639   -0.543979
      9          1           0       -2.841106    0.817994    1.009409
     10          1           0        3.067389   -0.310830   -0.217725
     11          1           0        0.961919   -1.513225   -0.966940
     12          1           0        1.393147   -1.812071    0.736947
 ---------------------------------------------------------------------
                    Distance matrix (angstroms):
                    1          2          3          4          5
     1  C    0.000000
     2  C    3.636579   0.000000
     3  C    4.263781   1.540584   0.000000
     4  O    1.309965   3.182897   4.173983   0.000000
     5  O    2.345514   1.366429   2.423551   2.015647   0.000000
     6  O    4.007800   2.447214   1.205158   4.260207   2.790780
     7  H    1.222659   2.776080   3.227410   1.896975   1.572405
     8  H    1.103604   4.159536   4.480094   2.049840   3.043612
     9  H    1.102527   4.370111   5.050717   2.051970   3.012651
    10  H    5.357512   2.222501   1.112298   5.171206   3.384395
    11  H    4.016575   1.108608   2.103201   3.287377   2.028773
    12  H    4.428131   1.107433   2.157411   3.931820   2.086760
                    6          7          8          9         10
     6  O    0.000000
     7  H    2.964059   0.000000
     8  H    3.992724   1.813899   0.000000
     9  H    4.780716   1.841208   1.875297   0.000000
    10  H    2.023042   4.327181   5.572436   6.139252   0.000000
    11  H    3.027618   3.410630   4.432240   4.878887   2.537731
    12  H    3.197277   3.540262   5.092726   4.992031   2.442992
                   11         12
    11  H    0.000000
    12  H    1.782834   0.000000
 Symmetry turned off by external request.
 Stoichiometry    C3H6O3
 Framework group  C1[X(C3H6O3)]
 Deg. of freedom    30
 Full point group                 C1      NOp   1
 Rotational constants (GHZ):           7.0747797           1.8267283           1.5291177
 Standard basis: 6-31+G(d) (6D, 7F)
   126 basis functions,   216 primitive gaussians,   126 cartesian basis functions
    24 alpha electrons       24 beta electrons
       nuclear repulsion energy       229.7281601029 Hartrees.
 NAtoms=   12 NActive=   12 NUniq=   12 SFac= 1.00D+00 NAtFMM=   60 NAOKFM=F Big=F
 Integral buffers will be    131072 words long.
 Raffenetti 2 integral format.
 Two-electron integral symmetry is turned off.
 One-electron integrals computed using PRISM.
 NBasis=   126 RedAO= T EigKep=  1.79D-04  NBF=   126
 NBsUse=   126 1.00D-06 EigRej= -1.00D+00 NBFU=   126
 ExpMin= 4.38D-02 ExpMax= 5.48D+03 ExpMxC= 8.25D+02 IAcc=3 IRadAn=         5 AccDes= 0.00D+00
 Harris functional with IExCor=  402 and IRadAn=       5 diagonalized for initial guess.
 HarFok:  IExCor=  402 AccDes= 0.00D+00 IRadAn=         5 IDoV= 1 UseB2=F ITyADJ=14
 ICtDFT=  3500011 ScaDFX=  1.000000  1.000000  1.000000  1.000000
 FoFCou: FMM=F IPFlag=           0 FMFlag=      100000 FMFlg1=           0
         NFxFlg=           0 DoJE=T BraDBF=F KetDBF=T FulRan=T
         wScrn=  0.000000 ICntrl=       500 IOpCl=  0 I1Cent=   200000004 NGrid=           0
         NMat0=    1 NMatS0=      1 NMatT0=    0 NMatD0=    1 NMtDS0=    0 NMtDT0=    0
 Symmetry not used in FoFCou.
 Keep R1 ints in memory in canonical form, NReq=47237243.
 Requested convergence on RMS density matrix=1.00D-08 within 128 cycles.
 Requested convergence on MAX density matrix=1.00D-06.
 Requested convergence on             energy=1.00D-06.
 No special actions if energy rises.
 SCF Done:  E(RB3LYP) =  -343.414969885     A.U. after   15 cycles
            NFock= 15  Conv=0.54D-08     -V/T= 2.0092
 DoSCS=F DFT=T ScalE2(SS,OS)=  1.000000  1.000000
 Range of M.O.s used for correlation:     1   126
 NBasis=   126 NAE=    24 NBE=    24 NFC=     0 NFV=     0
 NROrb=    126 NOA=    24 NOB=    24 NVA=   102 NVB=   102

 **** Warning!!: The largest alpha MO coefficient is  0.25300414D+02

 Symmetrizing basis deriv contribution to polar:
 IMax=3 JMax=2 DiffMx= 0.00D+00
 G2DrvN: will do    13 centers at a time, making    1 passes.
 Calling FoFCou, ICntrl=  3107 FMM=F I1Cent=   0 AccDes= 0.00D+00.
 End of G2Drv F.D. properties file   721 does not exist.
 End of G2Drv F.D. properties file   722 does not exist.
 End of G2Drv F.D. properties file   788 does not exist.
          IDoAtm=111111111111
          Differentiating once with respect to nuclear coordinates.
 Keep R1 ints in memory in canonical form, NReq=47193286.
          There are    39 degrees of freedom in the 1st order CPHF.  IDoFFX=6 NUNeed=     0.
     33 vectors produced by pass  0 Test12= 6.28D-15 2.56D-09 XBig12= 2.32D-01 2.01D-01.
 AX will form    33 AO Fock derivatives at one time.
     33 vectors produced by pass  1 Test12= 6.28D-15 2.56D-09 XBig12= 1.44D-01 1.17D-01.
     33 vectors produced by pass  2 Test12= 6.28D-15 2.56D-09 XBig12= 3.70D-03 1.11D-02.
     33 vectors produced by pass  3 Test12= 6.28D-15 2.56D-09 XBig12= 3.32D-05 8.42D-04.
     33 vectors produced by pass  4 Test12= 6.28D-15 2.56D-09 XBig12= 5.55D-08 3.50D-05.
     28 vectors produced by pass  5 Test12= 6.28D-15 2.56D-09 XBig12= 4.52D-11 7.02D-07.
      5 vectors produced by pass  6 Test12= 6.28D-15 2.56D-09 XBig12= 3.98D-14 2.18D-08.
 InvSVY:  IOpt=1 It=  1 EMax= 1.78D-15
 Solved reduced A of dimension   198 with    33 vectors.
 End of Minotr F.D. properties file   721 does not exist.
 End of Minotr F.D. properties file   722 does not exist.
 End of Minotr F.D. properties file   788 does not exist.

 **********************************************************************

            Population analysis using the SCF Density.

 **********************************************************************

 Alpha  occ. eigenvalues --  -19.21254 -19.19034 -19.19006 -10.31137 -10.26528
 Alpha  occ. eigenvalues --  -10.25140  -1.08545  -1.05110  -1.00493  -0.73977
 Alpha  occ. eigenvalues --   -0.66218  -0.59453  -0.51545  -0.51461  -0.49304
 Alpha  occ. eigenvalues --   -0.47977  -0.45881  -0.44916  -0.40637  -0.36895
 Alpha  occ. eigenvalues --   -0.33258  -0.29761  -0.28608  -0.27276
 Alpha virt. eigenvalues --   -0.16414  -0.05370   0.00361   0.01650   0.03218
 Alpha virt. eigenvalues --    0.03682   0.04266   0.04981   0.06313   0.07976
 Alpha virt. eigenvalues --    0.08770   0.09410   0.09664   0.13854   0.15401
 Alpha virt. eigenvalues --    0.17754   0.19000   0.20249   0.21725   0.22141
 Alpha virt. eigenvalues --    0.23525   0.24072   0.24866   0.25061   0.26690
 Alpha virt. eigenvalues --    0.27661   0.27761   0.29289   0.29590   0.31490
 Alpha virt. eigenvalues --    0.32126   0.34051   0.36265   0.39603   0.41716
 Alpha virt. eigenvalues --    0.45881   0.62997   0.63623   0.66205   0.66787
 Alpha virt. eigenvalues --    0.70269   0.71597   0.78898   0.80868   0.85667
 Alpha virt. eigenvalues --    0.89283   0.90039   0.93378   0.93690   0.98693
 Alpha virt. eigenvalues --    1.03151   1.08256   1.14481   1.16212   1.18601
 Alpha virt. eigenvalues --    1.20444   1.23215   1.24222   1.25853   1.29294
 Alpha virt. eigenvalues --    1.33078   1.34328   1.39679   1.43180   1.48947
 Alpha virt. eigenvalues --    1.50883   1.54333   1.55513   1.62642   1.65045
 Alpha virt. eigenvalues --    1.68073   1.68966   1.73166   1.77715   1.79209
 Alpha virt. eigenvalues --    1.79768   1.91767   2.00964   2.03404   2.07776
 Alpha virt. eigenvalues --    2.08302   2.14383   2.20814   2.23735   2.27037
 Alpha virt. eigenvalues --    2.28957   2.42535   2.44380   2.51625   2.53270
 Alpha virt. eigenvalues --    2.57136   2.64895   2.86253   2.90231   2.90792
 Alpha virt. eigenvalues --    3.06715   4.06263   4.16263   4.17061   4.28752
 Alpha virt. eigenvalues --    4.31072   4.48115
          Condensed to atoms (all electrons):
               1          2          3          4          5          6
     1  C    5.249719  -0.002451  -0.005085   0.261414  -0.130725   0.008571
     2  C   -0.002451   5.696602  -0.053429   0.017097   0.163656  -0.141444
     3  C   -0.005085  -0.053429   5.132919   0.010736  -0.103303   0.500846
     4  O    0.261414   0.017097   0.010736   8.069406  -0.048914  -0.003901
     5  O   -0.130725   0.163656  -0.103303  -0.048914   8.506027   0.016683
     6  O    0.008571  -0.141444   0.500846  -0.003901   0.016683   8.017830
     7  H    0.288037  -0.001426  -0.011320  -0.019218  -0.006988   0.006570
     8  H    0.363978   0.001038  -0.001446  -0.057488   0.005672   0.000003
     9  H    0.365182  -0.001123   0.001638  -0.061052   0.010176  -0.000281
    10  H    0.001590  -0.125859   0.385308  -0.000349   0.009174  -0.066965
    11  H    0.002806   0.344517  -0.013515   0.004109  -0.040590  -0.002723
    12  H   -0.002183   0.441169  -0.086045  -0.004801  -0.067417   0.000560
               7          8          9         10         11         12
     1  C    0.288037   0.363978   0.365182   0.001590   0.002806  -0.002183
     2  C   -0.001426   0.001038  -0.001123  -0.125859   0.344517   0.441169
     3  C   -0.011320  -0.001446   0.001638   0.385308  -0.013515  -0.086045
     4  O   -0.019218  -0.057488  -0.061052  -0.000349   0.004109  -0.004801
     5  O   -0.006988   0.005672   0.010176   0.009174  -0.040590  -0.067417
     6  O    0.006570   0.000003  -0.000281  -0.066965  -0.002723   0.000560
     7  H    0.486816  -0.020284  -0.023393   0.000186   0.002043  -0.000613
     8  H   -0.020284   0.556832  -0.053449  -0.000002  -0.000050   0.000002
     9  H   -0.023393  -0.053449   0.561992  -0.000000  -0.000017   0.000012
    10  H    0.000186  -0.000002  -0.000000   0.619840   0.000147   0.005869
    11  H    0.002043  -0.000050  -0.000017   0.000147   0.511548  -0.045697
    12  H   -0.000613   0.000002   0.000012   0.005869  -0.045697   0.559986
 Mulliken charges:
               1
     1  C   -0.400852
     2  C   -0.338349
     3  C    0.242698
     4  O   -0.167037
     5  O   -0.313450
     6  O   -0.335751
     7  H    0.299590
     8  H    0.205194
     9  H    0.200316
    10  H    0.171061
    11  H    0.237423
    12  H    0.199157
 Sum of Mulliken charges =  -0.00000
 Mulliken charges with hydrogens summed into heavy atoms:
               1
     1  C    0.304248
     2  C    0.098231
     3  C    0.413759
     4  O   -0.167037
     5  O   -0.313450
     6  O   -0.335751
 APT charges:
               1
     1  C   -0.826291
     2  C   -0.769202
     3  C   -0.211323
     4  O   -0.296205
     5  O   -0.242466
     6  O   -0.348719
     7  H    0.221023
     8  H    0.414259
     9  H    0.547678
    10  H    0.567555
    11  H    0.451790
    12  H    0.491900
 Sum of APT charges =  -0.00000
 APT charges with hydrogens summed into heavy atoms:
               1
     1  C    0.356670
     2  C    0.174488
     3  C    0.356232
     4  O   -0.296205
     5  O   -0.242466
     6  O   -0.348719
 Electronic spatial extent (au):  <R**2>=            753.0571
 Charge=             -0.0000 electrons
 Dipole moment (field-independent basis, Debye):
    X=              1.4273    Y=             -0.7076    Z=              0.1657  Tot=              1.6016
 Quadrupole moment (field-independent basis, Debye-Ang):
   XX=            -32.3193   YY=            -37.4543   ZZ=            -35.6932
   XY=             -9.9807   XZ=             -2.0383   YZ=              0.8647
 Traceless Quadrupole moment (field-independent basis, Debye-Ang):
   XX=              2.8363   YY=             -2.2987   ZZ=             -0.5376
   XY=             -9.9807   XZ=             -2.0383   YZ=              0.8647
 Octapole moment (field-independent basis, Debye-Ang**2):
  XXX=              3.9496  YYY=             -4.4167  ZZZ=             -0.9298  XYY=             -5.6484
  XXY=              0.2160  XXZ=              3.8592  XZZ=              0.6585  YZZ=              0.4538
  YYZ=             -1.2068  XYZ=              0.6447
 Hexadecapole moment (field-independent basis, Debye-Ang**3):
 XXXX=           -668.0164 YYYY=           -201.7576 ZZZZ=            -61.1577 XXXY=            -25.7109
 XXXZ=            -10.7568 YYYX=             -5.0104 YYYZ=             -0.2463 ZZZX=             -0.2535
 ZZZY=              0.9030 XXYY=           -160.9208 XXZZ=           -124.0991 YYZZ=            -41.2414
 XXYZ=              0.3686 YYXZ=              2.3987 ZZXY=              0.0885
 N-N= 2.297281601029D+02 E-N=-1.264107947846D+03  KE= 3.402769712286D+02
  Exact polarizability:   0.000   0.000   0.000   0.000   0.000   0.000
 Approx polarizability: 180.745 -26.182  99.208  11.326   2.855  58.288
 Calling FoFJK, ICntrl=    100127 FMM=F ISym2X=0 I1Cent= 0 IOpClX= 0 NMat=1 NMatS=1 NMatT=0.
 -------------------------------------------------------------------
 Center     Atomic                   Forces (Hartrees/Bohr)
 Number     Number              X              Y              Z
 -------------------------------------------------------------------
      1        6          -0.000002831    0.000001409   -0.000000318
      2        6          -0.000000843   -0.000000259   -0.000001648
      3        6          -0.000000700    0.000001205    0.000000410
      4        8          -0.000000003   -0.000001008   -0.000001503
      5        8           0.000000845   -0.000001318   -0.000000316
      6        8           0.000000536   -0.000001481    0.000001263
      7        1           0.000003393    0.000001682    0.000003148
      8        1          -0.000000063    0.000000632    0.000001582
      9        1          -0.000000102   -0.000000509    0.000000501
     10        1           0.000000218   -0.000000258   -0.000000184
     11        1          -0.000000036    0.000000802   -0.000001307
     12        1          -0.000000414   -0.000000897   -0.000001628
 -------------------------------------------------------------------
 Cartesian Forces:  Max     0.000003393 RMS     0.000001285
 IRC-IRC-IRC-IRC-IRC-IRC-IRC-IRC-IRC-IRC-IRC-IRC-IRC-IRC-IRC-IRC-IRC-IRC
          ******** Start new reaction path calculation ********
 Supplied step size of   0.1500 bohr.
    Integration on MW PES will use step size of   0.1666 sqrt(amu)*bohr.
 Point Number:   0          Path Number:   1
 Calculating another point on the path.
 IRC-IRC-IRC-IRC-IRC-IRC-IRC-IRC-IRC-IRC-IRC-IRC-IRC-IRC-IRC-IRC-IRC-IRC
                          Input orientation:                          
 ---------------------------------------------------------------------
 Center     Atomic      Atomic             Coordinates (Angstroms)
 Number     Number       Type             X           Y           Z
 ---------------------------------------------------------------------
      1          6           0       -2.182797    0.732069    0.138294
      2          6           0        0.983854   -1.054222    0.049726
      3          6           0        2.025158    0.068361   -0.087406
      4          8           0       -2.110528   -0.435824   -0.428819
      5          8           0       -0.261943   -0.591367    0.373359
      6          8           0        1.788594    1.250582   -0.062506
      7          1           0       -1.002853    0.694709    0.600352
      8          1           0       -2.140322    1.610012   -0.529752
      9          1           0       -2.830398    0.815771    1.027155
     10          1           0        3.061641   -0.313987   -0.213438
     11          1           0        0.951965   -1.517431   -0.957189
     12          1           0        1.388931   -1.812607    0.747084
 ---------------------------------------------------------------------
                    Distance matrix (angstroms):
                    1          2          3          4          5
     1  C    0.000000
     2  C    3.636806   0.000000
     3  C    4.265951   1.537307   0.000000
     4  O    1.300313   3.191648   4.180271   0.000000
     5  O    2.344444   1.367839   2.424537   2.021126   0.000000
     6  O    4.010128   2.443835   1.205915   4.263953   2.790601
     7  H    1.267739   2.703508   3.167677   1.887920   1.501487
     8  H    1.104026   4.146615   4.463585   2.048541   3.031499
     9  H    1.102936   4.358986   5.037589   2.050503   3.000741
    10  H    5.359299   2.221351   1.111922   5.178085   3.386367
    11  H    4.010869   1.108809   2.103094   3.290580   2.025223
    12  H    4.427556   1.107043   2.153880   3.940113   2.087219
                    6          7          8          9         10
     6  O    0.000000
     7  H    2.922422   0.000000
     8  H    3.972894   1.846281   0.000000
     9  H    4.765659   1.880622   1.879092   0.000000
    10  H    2.022698   4.266126   5.555380   6.126300   0.000000
    11  H    3.026930   3.337786   4.418806   4.867004   2.540113
    12  H    3.193477   3.468255   5.079396   4.978911   2.442626
                   11         12
    11  H    0.000000
    12  H    1.783989   0.000000
 Symmetry turned off by external request.
 Stoichiometry    C3H6O3
 Framework group  C1[X(C3H6O3)]
 Deg. of freedom    30
 Full point group                 C1      NOp   1
 Rotational constants (GHZ):           7.1066806           1.8245516           1.5289113
 Standard basis: 6-31+G(d) (6D, 7F)
   126 basis functions,   216 primitive gaussians,   126 cartesian basis functions
    24 alpha electrons       24 beta electrons
       nuclear repulsion energy       229.9391442997 Hartrees.
 NAtoms=   12 NActive=   12 NUniq=   12 SFac= 1.00D+00 NAtFMM=   60 NAOKFM=F Big=F
 Integral buffers will be    131072 words long.
 Raffenetti 2 integral format.
 Two-electron integral symmetry is turned off.
 One-electron integrals computed using PRISM.
 NBasis=   126 RedAO= T EigKep=  1.77D-04  NBF=   126
 NBsUse=   126 1.00D-06 EigRej= -1.00D+00 NBFU=   126
 Initial guess from the checkpoint file:  "/scratch/bell/zhao922/YARP/paper-example/KHP-network/pp_0/IRC-folder/Gau-52563.chk"
 B after Tr=    -0.011211   -0.010203    0.013156
         Rot=    1.000000   -0.000172   -0.000123    0.000043 Ang=  -0.02 deg.
 ExpMin= 4.38D-02 ExpMax= 5.48D+03 ExpMxC= 8.25D+02 IAcc=3 IRadAn=         5 AccDes= 0.00D+00
 Harris functional with IExCor=  402 and IRadAn=       5 diagonalized for initial guess.
 HarFok:  IExCor=  402 AccDes= 0.00D+00 IRadAn=         5 IDoV= 1 UseB2=F ITyADJ=14
 ICtDFT=  3500011 ScaDFX=  1.000000  1.000000  1.000000  1.000000
 FoFCou: FMM=F IPFlag=           0 FMFlag=      100000 FMFlg1=           0
         NFxFlg=           0 DoJE=T BraDBF=F KetDBF=T FulRan=T
         wScrn=  0.000000 ICntrl=       500 IOpCl=  0 I1Cent=   200000004 NGrid=           0
         NMat0=    1 NMatS0=      1 NMatT0=    0 NMatD0=    1 NMtDS0=    0 NMtDT0=    0
 Symmetry not used in FoFCou.
 Keep R1 ints in memory in canonical form, NReq=47237243.
 Requested convergence on RMS density matrix=1.00D-08 within 128 cycles.
 Requested convergence on MAX density matrix=1.00D-06.
 Requested convergence on             energy=1.00D-06.
 No special actions if energy rises.
 SCF Done:  E(RB3LYP) =  -343.415744379     A.U. after   15 cycles
            NFock= 15  Conv=0.22D-08     -V/T= 2.0092
 DoSCS=F DFT=T ScalE2(SS,OS)=  1.000000  1.000000
 Range of M.O.s used for correlation:     1   126
 NBasis=   126 NAE=    24 NBE=    24 NFC=     0 NFV=     0
 NROrb=    126 NOA=    24 NOB=    24 NVA=   102 NVB=   102

 **** Warning!!: The largest alpha MO coefficient is  0.25468961D+02

 Symmetrizing basis deriv contribution to polar:
 IMax=3 JMax=2 DiffMx= 0.00D+00
 G2DrvN: will do    13 centers at a time, making    1 passes.
 Calling FoFCou, ICntrl=  3107 FMM=F I1Cent=   0 AccDes= 0.00D+00.
 End of G2Drv F.D. properties file   721 does not exist.
 End of G2Drv F.D. properties file   722 does not exist.
 End of G2Drv F.D. properties file   788 does not exist.
          IDoAtm=111111111111
          Differentiating once with respect to nuclear coordinates.
 Keep R1 ints in memory in canonical form, NReq=47193286.
          There are    39 degrees of freedom in the 1st order CPHF.  IDoFFX=6 NUNeed=     0.
     33 vectors produced by pass  0 Test12= 6.28D-15 2.56D-09 XBig12= 2.27D-01 2.01D-01.
 AX will form    33 AO Fock derivatives at one time.
     33 vectors produced by pass  1 Test12= 6.28D-15 2.56D-09 XBig12= 1.68D-01 1.35D-01.
     33 vectors produced by pass  2 Test12= 6.28D-15 2.56D-09 XBig12= 3.76D-03 1.17D-02.
     33 vectors produced by pass  3 Test12= 6.28D-15 2.56D-09 XBig12= 3.21D-05 1.01D-03.
     33 vectors produced by pass  4 Test12= 6.28D-15 2.56D-09 XBig12= 4.36D-08 2.81D-05.
     28 vectors produced by pass  5 Test12= 6.28D-15 2.56D-09 XBig12= 3.68D-11 6.25D-07.
      5 vectors produced by pass  6 Test12= 6.28D-15 2.56D-09 XBig12= 3.34D-14 2.14D-08.
 InvSVY:  IOpt=1 It=  1 EMax= 2.44D-15
 Solved reduced A of dimension   198 with    33 vectors.
 End of Minotr F.D. properties file   721 does not exist.
 End of Minotr F.D. properties file   722 does not exist.
 End of Minotr F.D. properties file   788 does not exist.
 Calling FoFJK, ICntrl=    100127 FMM=F ISym2X=0 I1Cent= 0 IOpClX= 0 NMat=1 NMatS=1 NMatT=0.
 -------------------------------------------------------------------
 Center     Atomic                   Forces (Hartrees/Bohr)
 Number     Number              X              Y              Z
 -------------------------------------------------------------------
      1        6          -0.004751704   -0.005053650   -0.004878107
      2        6           0.003001032    0.003399057    0.001554244
      3        6           0.000991682   -0.000750272   -0.000003393
      4        8          -0.008038541    0.005894433    0.000658884
      5        8          -0.001335373    0.001321586    0.001341360
      6        8          -0.000392990    0.000173160    0.000211251
      7        1           0.007251105   -0.005894443   -0.000833811
      8        1           0.001727656    0.000140604    0.000753943
      9        1           0.001612715    0.000178233    0.000818198
     10        1           0.000130687    0.000184559   -0.000244350
     11        1          -0.000235795    0.000013685    0.000295523
     12        1           0.000039525    0.000393048    0.000326259
 -------------------------------------------------------------------
 Cartesian Forces:  Max     0.008038541 RMS     0.002873250
 IRC-IRC-IRC-IRC-IRC-IRC-IRC-IRC-IRC-IRC-IRC-IRC-IRC-IRC-IRC-IRC-IRC-IRC
 Pt  1 Step number   1 out of a maximum of 100
 Modified Bulirsch-Stoer Extrapolation Cycles:
    EPS =    0.000010000000000
      PEZero:  N= 2 I= 1 D=  4.34D-04 Err=  8.78D-04
      PEZero:  N= 3 I= 2 D=  4.34D-04 Err=  5.85D-04
      PEZero:  N= 3 I= 1 D=  8.68D-04 Err=  2.36D-07
 Maximum DWI energy   std dev =  0.000021674 at pt    44
 Maximum DWI gradient std dev =  0.056631032 at pt    38
 CORRECTOR INTEGRATION CONVERGENCE:
   Recorrection delta-x convergence threshold:    0.010000
   Delta-x Convergence Met
 Point Number:   1          Path Number:   1
   CHANGE IN THE REACTION COORDINATE =    0.16632
   NET REACTION COORDINATE UP TO THIS POINT =    0.16632
  # OF POINTS ALONG THE PATH =   1
  # OF STEPS =   1

 Calculating another point on the path.
 IRC-IRC-IRC-IRC-IRC-IRC-IRC-IRC-IRC-IRC-IRC-IRC-IRC-IRC-IRC-IRC-IRC-IRC
                          Input orientation:                          
 ---------------------------------------------------------------------
 Center     Atomic      Atomic             Coordinates (Angstroms)
 Number     Number       Type             X           Y           Z
 ---------------------------------------------------------------------
      1          6           0       -2.186355    0.728339    0.134719
      2          6           0        0.985819   -1.051898    0.050530
      3          6           0        2.025772    0.067735   -0.087379
      4          8           0       -2.114022   -0.432570   -0.428195
      5          8           0       -0.262845   -0.590437    0.374250
      6          8           0        1.788384    1.250657   -0.062404
      7          1           0       -0.942562    0.643218    0.592197
      8          1           0       -2.126380    1.611954   -0.524249
      9          1           0       -2.818213    0.817102    1.034357
     10          1           0        3.062542   -0.312412   -0.215269
     11          1           0        0.949527   -1.517325   -0.955209
     12          1           0        1.388785   -1.809452    0.749389
 ---------------------------------------------------------------------
                    Distance matrix (angstroms):
                    1          2          3          4          5
     1  C    0.000000
     2  C    3.638547   0.000000
     3  C    4.269395   1.534306   0.000000
     4  O    1.292212   3.197149   4.183820   0.000000
     5  O    2.344448   1.370001   2.425707   2.023783   0.000000
     6  O    4.013754   2.441029   1.206765   4.265656   2.790669
     7  H    1.327988   2.624019   3.099033   1.889666   1.425279
     8  H    1.103907   4.136697   4.451498   2.046816   3.021687
     9  H    1.102938   4.351061   5.028322   2.048566   2.991122
    10  H    5.362515   2.220420   1.111647   5.182334   3.388661
    11  H    4.008080   1.108806   2.103294   3.292380   2.023963
    12  H    4.427169   1.106650   2.151689   3.943623   2.086769
                    6          7          8          9         10
     6  O    0.000000
     7  H    2.873247   0.000000
     8  H    3.958436   1.893760   0.000000
     9  H    4.755164   1.934892   1.881402   0.000000
    10  H    2.022382   4.195960   5.542884   6.117241   0.000000
    11  H    3.026963   3.262271   4.409004   4.858372   2.542472
    12  H    3.191075   3.387547   5.067994   4.967778   2.444005
                   11         12
    11  H    0.000000
    12  H    1.784361   0.000000
 Symmetry turned off by external request.
 Stoichiometry    C3H6O3
 Framework group  C1[X(C3H6O3)]
 Deg. of freedom    30
 Full point group                 C1      NOp   1
 Rotational constants (GHZ):           7.1347748           1.8229446           1.5289345
 Standard basis: 6-31+G(d) (6D, 7F)
   126 basis functions,   216 primitive gaussians,   126 cartesian basis functions
    24 alpha electrons       24 beta electrons
       nuclear repulsion energy       230.1338951491 Hartrees.
 NAtoms=   12 NActive=   12 NUniq=   12 SFac= 1.00D+00 NAtFMM=   60 NAOKFM=F Big=F
 Integral buffers will be    131072 words long.
 Raffenetti 2 integral format.
 Two-electron integral symmetry is turned off.
 One-electron integrals computed using PRISM.
 NBasis=   126 RedAO= T EigKep=  1.75D-04  NBF=   126
 NBsUse=   126 1.00D-06 EigRej= -1.00D+00 NBFU=   126
 Initial guess from the checkpoint file:  "/scratch/bell/zhao922/YARP/paper-example/KHP-network/pp_0/IRC-folder/Gau-52563.chk"
 B after Tr=     0.001652   -0.000843    0.000138
         Rot=    1.000000   -0.000183   -0.000109    0.000035 Ang=  -0.02 deg.
 ExpMin= 4.38D-02 ExpMax= 5.48D+03 ExpMxC= 8.25D+02 IAcc=3 IRadAn=         5 AccDes= 0.00D+00
 Harris functional with IExCor=  402 and IRadAn=       5 diagonalized for initial guess.
 HarFok:  IExCor=  402 AccDes= 0.00D+00 IRadAn=         5 IDoV= 1 UseB2=F ITyADJ=14
 ICtDFT=  3500011 ScaDFX=  1.000000  1.000000  1.000000  1.000000
 FoFCou: FMM=F IPFlag=           0 FMFlag=      100000 FMFlg1=           0
         NFxFlg=           0 DoJE=T BraDBF=F KetDBF=T FulRan=T
         wScrn=  0.000000 ICntrl=       500 IOpCl=  0 I1Cent=   200000004 NGrid=           0
         NMat0=    1 NMatS0=      1 NMatT0=    0 NMatD0=    1 NMtDS0=    0 NMtDT0=    0
 Symmetry not used in FoFCou.
 Keep R1 ints in memory in canonical form, NReq=47237243.
 Requested convergence on RMS density matrix=1.00D-08 within 128 cycles.
 Requested convergence on MAX density matrix=1.00D-06.
 Requested convergence on             energy=1.00D-06.
 No special actions if energy rises.
 SCF Done:  E(RB3LYP) =  -343.418865274     A.U. after   14 cycles
            NFock= 14  Conv=0.96D-08     -V/T= 2.0092
 DoSCS=F DFT=T ScalE2(SS,OS)=  1.000000  1.000000
 Range of M.O.s used for correlation:     1   126
 NBasis=   126 NAE=    24 NBE=    24 NFC=     0 NFV=     0
 NROrb=    126 NOA=    24 NOB=    24 NVA=   102 NVB=   102

 **** Warning!!: The largest alpha MO coefficient is  0.29569420D+02

 Symmetrizing basis deriv contribution to polar:
 IMax=3 JMax=2 DiffMx= 0.00D+00
 G2DrvN: will do    13 centers at a time, making    1 passes.
 Calling FoFCou, ICntrl=  3107 FMM=F I1Cent=   0 AccDes= 0.00D+00.
 End of G2Drv F.D. properties file   721 does not exist.
 End of G2Drv F.D. properties file   722 does not exist.
 End of G2Drv F.D. properties file   788 does not exist.
          IDoAtm=111111111111
          Differentiating once with respect to nuclear coordinates.
 Keep R1 ints in memory in canonical form, NReq=47193286.
          There are    39 degrees of freedom in the 1st order CPHF.  IDoFFX=6 NUNeed=     0.
     33 vectors produced by pass  0 Test12= 6.28D-15 2.56D-09 XBig12= 2.19D-01 1.93D-01.
 AX will form    33 AO Fock derivatives at one time.
     33 vectors produced by pass  1 Test12= 6.28D-15 2.56D-09 XBig12= 1.86D-01 1.39D-01.
     33 vectors produced by pass  2 Test12= 6.28D-15 2.56D-09 XBig12= 3.72D-03 1.19D-02.
     33 vectors produced by pass  3 Test12= 6.28D-15 2.56D-09 XBig12= 2.81D-05 1.16D-03.
     33 vectors produced by pass  4 Test12= 6.28D-15 2.56D-09 XBig12= 3.11D-08 2.87D-05.
     28 vectors produced by pass  5 Test12= 6.28D-15 2.56D-09 XBig12= 2.84D-11 5.48D-07.
      5 vectors produced by pass  6 Test12= 6.28D-15 2.56D-09 XBig12= 2.56D-14 2.04D-08.
 InvSVY:  IOpt=1 It=  1 EMax= 1.55D-15
 Solved reduced A of dimension   198 with    33 vectors.
 End of Minotr F.D. properties file   721 does not exist.
 End of Minotr F.D. properties file   722 does not exist.
 End of Minotr F.D. properties file   788 does not exist.
 Calling FoFJK, ICntrl=    100127 FMM=F ISym2X=0 I1Cent= 0 IOpClX= 0 NMat=1 NMatS=1 NMatT=0.
 -------------------------------------------------------------------
 Center     Atomic                   Forces (Hartrees/Bohr)
 Number     Number              X              Y              Z
 -------------------------------------------------------------------
      1        6          -0.013758844   -0.012927738   -0.012998221
      2        6           0.006933246    0.008378742    0.002436806
      3        6           0.002119067   -0.002247891    0.000103697
      4        8          -0.016248805    0.015385541    0.002909839
      5        8          -0.004614241    0.005141815    0.004945604
      6        8          -0.000998798    0.000357252    0.000468482
      7        1           0.019453426   -0.016356499   -0.002364640
      8        1           0.004075451    0.000530639    0.001656075
      9        1           0.003583351    0.000387544    0.002080204
     10        1           0.000298357    0.000459698   -0.000540623
     11        1          -0.000671228   -0.000010255    0.000620492
     12        1          -0.000170982    0.000901150    0.000682285
 -------------------------------------------------------------------
 Cartesian Forces:  Max     0.019453426 RMS     0.007327913
 IRC-IRC-IRC-IRC-IRC-IRC-IRC-IRC-IRC-IRC-IRC-IRC-IRC-IRC-IRC-IRC-IRC-IRC
 Pt  2 Step number   1 out of a maximum of 100
 Modified Bulirsch-Stoer Extrapolation Cycles:
    EPS =    0.000010000000000
      PEZero:  N= 2 I= 1 D=  8.67D-04 Err=  6.56D-05
      PEZero:  N= 3 I= 2 D=  8.67D-04 Err=  4.36D-05
      PEZero:  N= 3 I= 1 D=  1.73D-03 Err=  1.04D-07
 Maximum DWI energy   std dev =  0.000029505 at pt    68
 Maximum DWI gradient std dev =  0.016906027 at pt    64
 CORRECTOR INTEGRATION CONVERGENCE:
   Recorrection delta-x convergence threshold:    0.010000
   Delta-x Convergence Met
 Point Number:   2          Path Number:   1
   CHANGE IN THE REACTION COORDINATE =    0.16646
   NET REACTION COORDINATE UP TO THIS POINT =    0.33278
  # OF POINTS ALONG THE PATH =   2
  # OF STEPS =   1

 Calculating another point on the path.
 IRC-IRC-IRC-IRC-IRC-IRC-IRC-IRC-IRC-IRC-IRC-IRC-IRC-IRC-IRC-IRC-IRC-IRC
                          Input orientation:                          
 ---------------------------------------------------------------------
 Center     Atomic      Atomic             Coordinates (Angstroms)
 Number     Number       Type             X           Y           Z
 ---------------------------------------------------------------------
      1          6           0       -2.190148    0.725118    0.131338
      2          6           0        0.987517   -1.049797    0.050971
      3          6           0        2.026272    0.067126   -0.087341
      4          8           0       -2.116812   -0.429635   -0.427568
      5          8           0       -0.263824   -0.589306    0.375338
      6          8           0        1.788195    1.250729   -0.062321
      7          1           0       -0.880518    0.591680    0.585340
      8          1           0       -2.114630    1.613558   -0.519501
      9          1           0       -2.808059    0.818134    1.040378
     10          1           0        3.063400   -0.311024   -0.216807
     11          1           0        0.947538   -1.517481   -0.953477
     12          1           0        1.387793   -1.806883    0.751305
 ---------------------------------------------------------------------
                    Distance matrix (angstroms):
                    1          2          3          4          5
     1  C    0.000000
     2  C    3.640651   0.000000
     3  C    4.273052   1.531555   0.000000
     4  O    1.284993   3.201633   4.186606   0.000000
     5  O    2.344775   1.372269   2.426833   2.025763   0.000000
     6  O    4.017584   2.438512   1.207569   4.266861   2.790709
     7  H    1.392500   2.543531   3.029370   1.896705   1.348755
     8  H    1.103911   4.128222   4.441316   2.045261   3.013109
     9  H    1.103096   4.344478   5.020610   2.046855   2.982666
    10  H    5.366057   2.219635   1.111482   5.185854   3.390944
    11  H    4.006388   1.108712   2.103530   3.293969   2.023526
    12  H    4.426855   1.106285   2.150091   3.945732   2.086069
                    6          7          8          9         10
     6  O    0.000000
     7  H    2.824152   0.000000
     8  H    3.946226   1.946263   0.000000
     9  H    4.746434   1.993429   1.883286   0.000000
    10  H    2.022149   4.124658   5.532417   6.109791   0.000000
    11  H    3.027185   3.187210   4.400979   4.851295   2.544620
    12  H    3.189247   3.305432   5.057799   4.957766   2.445913
                   11         12
    11  H    0.000000
    12  H    1.784337   0.000000
 Symmetry turned off by external request.
 Stoichiometry    C3H6O3
 Framework group  C1[X(C3H6O3)]
 Deg. of freedom    30
 Full point group                 C1      NOp   1
 Rotational constants (GHZ):           7.1603045           1.8214690           1.5289486
 Standard basis: 6-31+G(d) (6D, 7F)
   126 basis functions,   216 primitive gaussians,   126 cartesian basis functions
    24 alpha electrons       24 beta electrons
       nuclear repulsion energy       230.3348230665 Hartrees.
 NAtoms=   12 NActive=   12 NUniq=   12 SFac= 1.00D+00 NAtFMM=   60 NAOKFM=F Big=F
 Integral buffers will be    131072 words long.
 Raffenetti 2 integral format.
 Two-electron integral symmetry is turned off.
 One-electron integrals computed using PRISM.
 NBasis=   126 RedAO= T EigKep=  1.73D-04  NBF=   126
 NBsUse=   126 1.00D-06 EigRej= -1.00D+00 NBFU=   126
 Initial guess from the checkpoint file:  "/scratch/bell/zhao922/YARP/paper-example/KHP-network/pp_0/IRC-folder/Gau-52563.chk"
 B after Tr=     0.001596   -0.000876    0.000120
         Rot=    1.000000   -0.000183   -0.000102    0.000030 Ang=  -0.02 deg.
 ExpMin= 4.38D-02 ExpMax= 5.48D+03 ExpMxC= 8.25D+02 IAcc=3 IRadAn=         5 AccDes= 0.00D+00
 Harris functional with IExCor=  402 and IRadAn=       5 diagonalized for initial guess.
 HarFok:  IExCor=  402 AccDes= 0.00D+00 IRadAn=         5 IDoV= 1 UseB2=F ITyADJ=14
 ICtDFT=  3500011 ScaDFX=  1.000000  1.000000  1.000000  1.000000
 FoFCou: FMM=F IPFlag=           0 FMFlag=      100000 FMFlg1=           0
         NFxFlg=           0 DoJE=T BraDBF=F KetDBF=T FulRan=T
         wScrn=  0.000000 ICntrl=       500 IOpCl=  0 I1Cent=   200000004 NGrid=           0
         NMat0=    1 NMatS0=      1 NMatT0=    0 NMatD0=    1 NMtDS0=    0 NMtDT0=    0
 Symmetry not used in FoFCou.
 Keep R1 ints in memory in canonical form, NReq=47237243.
 Requested convergence on RMS density matrix=1.00D-08 within 128 cycles.
 Requested convergence on MAX density matrix=1.00D-06.
 Requested convergence on             energy=1.00D-06.
 No special actions if energy rises.
 SCF Done:  E(RB3LYP) =  -343.425327886     A.U. after   14 cycles
            NFock= 14  Conv=0.62D-08     -V/T= 2.0092
 DoSCS=F DFT=T ScalE2(SS,OS)=  1.000000  1.000000
 Range of M.O.s used for correlation:     1   126
 NBasis=   126 NAE=    24 NBE=    24 NFC=     0 NFV=     0
 NROrb=    126 NOA=    24 NOB=    24 NVA=   102 NVB=   102

 **** Warning!!: The largest alpha MO coefficient is  0.31067344D+02

 Symmetrizing basis deriv contribution to polar:
 IMax=3 JMax=2 DiffMx= 0.00D+00
 G2DrvN: will do    13 centers at a time, making    1 passes.
 Calling FoFCou, ICntrl=  3107 FMM=F I1Cent=   0 AccDes= 0.00D+00.
 End of G2Drv F.D. properties file   721 does not exist.
 End of G2Drv F.D. properties file   722 does not exist.
 End of G2Drv F.D. properties file   788 does not exist.
          IDoAtm=111111111111
          Differentiating once with respect to nuclear coordinates.
 Keep R1 ints in memory in canonical form, NReq=47193286.
          There are    39 degrees of freedom in the 1st order CPHF.  IDoFFX=6 NUNeed=     0.
     33 vectors produced by pass  0 Test12= 6.28D-15 2.56D-09 XBig12= 2.10D-01 1.98D-01.
 AX will form    33 AO Fock derivatives at one time.
     33 vectors produced by pass  1 Test12= 6.28D-15 2.56D-09 XBig12= 1.86D-01 1.74D-01.
     33 vectors produced by pass  2 Test12= 6.28D-15 2.56D-09 XBig12= 3.54D-03 1.15D-02.
     33 vectors produced by pass  3 Test12= 6.28D-15 2.56D-09 XBig12= 2.24D-05 1.12D-03.
     33 vectors produced by pass  4 Test12= 6.28D-15 2.56D-09 XBig12= 2.20D-08 2.68D-05.
     28 vectors produced by pass  5 Test12= 6.28D-15 2.56D-09 XBig12= 2.19D-11 4.71D-07.
      5 vectors produced by pass  6 Test12= 6.28D-15 2.56D-09 XBig12= 2.06D-14 1.96D-08.
 InvSVY:  IOpt=1 It=  1 EMax= 1.33D-15
 Solved reduced A of dimension   198 with    33 vectors.
 End of Minotr F.D. properties file   721 does not exist.
 End of Minotr F.D. properties file   722 does not exist.
 End of Minotr F.D. properties file   788 does not exist.
 Calling FoFJK, ICntrl=    100127 FMM=F ISym2X=0 I1Cent= 0 IOpClX= 0 NMat=1 NMatS=1 NMatT=0.
 -------------------------------------------------------------------
 Center     Atomic                   Forces (Hartrees/Bohr)
 Number     Number              X              Y              Z
 -------------------------------------------------------------------
      1        6          -0.026099346   -0.020855956   -0.022499934
      2        6           0.010950523    0.013896659    0.002232935
      3        6           0.003184291   -0.004055796    0.000270257
      4        8          -0.023615611    0.025907233    0.005640219
      5        8          -0.008840742    0.010985139    0.010664673
      6        8          -0.001667350    0.000620395    0.000719080
      7        1           0.035437648   -0.029865248   -0.004054974
      8        1           0.006388294    0.000848824    0.002625051
      9        1           0.005531006    0.000543563    0.003247104
     10        1           0.000494665    0.000752423   -0.000834706
     11        1          -0.001029949   -0.000147820    0.000973390
     12        1          -0.000733428    0.001370583    0.001016904
 -------------------------------------------------------------------
 Cartesian Forces:  Max     0.035437648 RMS     0.012698491
 IRC-IRC-IRC-IRC-IRC-IRC-IRC-IRC-IRC-IRC-IRC-IRC-IRC-IRC-IRC-IRC-IRC-IRC
 Pt  3 Step number   1 out of a maximum of 100
 Modified Bulirsch-Stoer Extrapolation Cycles:
    EPS =    0.000010000000000
      PEZero:  N= 2 I= 1 D=  8.67D-04 Err=  3.67D-05
      PEZero:  N= 3 I= 2 D=  8.67D-04 Err=  2.44D-05
      PEZero:  N= 3 I= 1 D=  1.73D-03 Err=  4.51D-08
 Maximum DWI energy   std dev =  0.000014794 at pt    70
 Maximum DWI gradient std dev =  0.004243977 at pt    65
 CORRECTOR INTEGRATION CONVERGENCE:
   Recorrection delta-x convergence threshold:    0.010000
   Delta-x Convergence Met
 Point Number:   3          Path Number:   1
   CHANGE IN THE REACTION COORDINATE =    0.16653
   NET REACTION COORDINATE UP TO THIS POINT =    0.49931
  # OF POINTS ALONG THE PATH =   3
  # OF STEPS =   1

 Calculating another point on the path.
 IRC-IRC-IRC-IRC-IRC-IRC-IRC-IRC-IRC-IRC-IRC-IRC-IRC-IRC-IRC-IRC-IRC-IRC
                          Input orientation:                          
 ---------------------------------------------------------------------
 Center     Atomic      Atomic             Coordinates (Angstroms)
 Number     Number       Type             X           Y           Z
 ---------------------------------------------------------------------
      1          6           0       -2.194053    0.722214    0.128097
      2          6           0        0.989033   -1.047827    0.051178
      3          6           0        2.026706    0.066536   -0.087298
      4          8           0       -2.119191   -0.426869   -0.426944
      5          8           0       -0.264802   -0.588026    0.376593
      6          8           0        1.788017    1.250797   -0.062247
      7          1           0       -0.818284    0.539180    0.578387
      8          1           0       -2.104137    1.614962   -0.515151
      9          1           0       -2.799022    0.818987    1.045708
     10          1           0        3.064236   -0.309766   -0.218174
     11          1           0        0.945899   -1.517844   -0.951869
     12          1           0        1.386214   -1.804670    0.752944
 ---------------------------------------------------------------------
                    Distance matrix (angstroms):
                    1          2          3          4          5
     1  C    0.000000
     2  C    3.642938   0.000000
     3  C    4.276811   1.528969   0.000000
     4  O    1.278306   3.205502   4.188946   0.000000
     5  O    2.345313   1.374559   2.427890   2.027413   0.000000
     6  O    4.021507   2.436168   1.208335   4.267768   2.790684
     7  H    1.459111   2.462302   2.959813   1.906909   1.271871
     8  H    1.104017   4.120543   4.432217   2.043791   3.005249
     9  H    1.103341   4.338599   5.013734   2.045246   2.974840
    10  H    5.369777   2.218954   1.111396   5.188952   3.393180
    11  H    4.005432   1.108548   2.103779   3.295535   2.023652
    12  H    4.426499   1.105911   2.148871   3.946940   2.085118
                    6          7          8          9         10
     6  O    0.000000
     7  H    2.776619   0.000000
     8  H    3.935302   2.001638   0.000000
     9  H    4.738665   2.054265   1.884866   0.000000
    10  H    2.021981   4.053293   5.523121   6.103219   0.000000
    11  H    3.027534   3.112132   4.394077   4.845154   2.546588
    12  H    3.187767   3.222408   5.048218   4.948281   2.448176
                   11         12
    11  H    0.000000
    12  H    1.783966   0.000000
 Symmetry turned off by external request.
 Stoichiometry    C3H6O3
 Framework group  C1[X(C3H6O3)]
 Deg. of freedom    30
 Full point group                 C1      NOp   1
 Rotational constants (GHZ):           7.1842588           1.8200611           1.5289418
 Standard basis: 6-31+G(d) (6D, 7F)
   126 basis functions,   216 primitive gaussians,   126 cartesian basis functions
    24 alpha electrons       24 beta electrons
       nuclear repulsion energy       230.5577043763 Hartrees.
 NAtoms=   12 NActive=   12 NUniq=   12 SFac= 1.00D+00 NAtFMM=   60 NAOKFM=F Big=F
 Integral buffers will be    131072 words long.
 Raffenetti 2 integral format.
 Two-electron integral symmetry is turned off.
 One-electron integrals computed using PRISM.
 NBasis=   126 RedAO= T EigKep=  1.71D-04  NBF=   126
 NBsUse=   126 1.00D-06 EigRej= -1.00D+00 NBFU=   126
 Initial guess from the checkpoint file:  "/scratch/bell/zhao922/YARP/paper-example/KHP-network/pp_0/IRC-folder/Gau-52563.chk"
 B after Tr=     0.001548   -0.000916    0.000093
         Rot=    1.000000   -0.000184   -0.000095    0.000026 Ang=  -0.02 deg.
 ExpMin= 4.38D-02 ExpMax= 5.48D+03 ExpMxC= 8.25D+02 IAcc=3 IRadAn=         5 AccDes= 0.00D+00
 Harris functional with IExCor=  402 and IRadAn=       5 diagonalized for initial guess.
 HarFok:  IExCor=  402 AccDes= 0.00D+00 IRadAn=         5 IDoV= 1 UseB2=F ITyADJ=14
 ICtDFT=  3500011 ScaDFX=  1.000000  1.000000  1.000000  1.000000
 FoFCou: FMM=F IPFlag=           0 FMFlag=      100000 FMFlg1=           0
         NFxFlg=           0 DoJE=T BraDBF=F KetDBF=T FulRan=T
         wScrn=  0.000000 ICntrl=       500 IOpCl=  0 I1Cent=   200000004 NGrid=           0
         NMat0=    1 NMatS0=      1 NMatT0=    0 NMatD0=    1 NMtDS0=    0 NMtDT0=    0
 Symmetry not used in FoFCou.
 Keep R1 ints in memory in canonical form, NReq=47237243.
 Requested convergence on RMS density matrix=1.00D-08 within 128 cycles.
 Requested convergence on MAX density matrix=1.00D-06.
 Requested convergence on             energy=1.00D-06.
 No special actions if energy rises.
 SCF Done:  E(RB3LYP) =  -343.435537880     A.U. after   13 cycles
            NFock= 13  Conv=0.81D-08     -V/T= 2.0092
 DoSCS=F DFT=T ScalE2(SS,OS)=  1.000000  1.000000
 Range of M.O.s used for correlation:     1   126
 NBasis=   126 NAE=    24 NBE=    24 NFC=     0 NFV=     0
 NROrb=    126 NOA=    24 NOB=    24 NVA=   102 NVB=   102

 **** Warning!!: The largest alpha MO coefficient is  0.31519830D+02

 Symmetrizing basis deriv contribution to polar:
 IMax=3 JMax=2 DiffMx= 0.00D+00
 G2DrvN: will do    13 centers at a time, making    1 passes.
 Calling FoFCou, ICntrl=  3107 FMM=F I1Cent=   0 AccDes= 0.00D+00.
 End of G2Drv F.D. properties file   721 does not exist.
 End of G2Drv F.D. properties file   722 does not exist.
 End of G2Drv F.D. properties file   788 does not exist.
          IDoAtm=111111111111
          Differentiating once with respect to nuclear coordinates.
 Keep R1 ints in memory in canonical form, NReq=47193279.
          There are    39 degrees of freedom in the 1st order CPHF.  IDoFFX=6 NUNeed=     0.
     33 vectors produced by pass  0 Test12= 6.28D-15 2.56D-09 XBig12= 2.01D-01 1.88D-01.
 AX will form    33 AO Fock derivatives at one time.
     33 vectors produced by pass  1 Test12= 6.28D-15 2.56D-09 XBig12= 1.64D-01 2.08D-01.
     33 vectors produced by pass  2 Test12= 6.28D-15 2.56D-09 XBig12= 3.17D-03 1.04D-02.
     33 vectors produced by pass  3 Test12= 6.28D-15 2.56D-09 XBig12= 1.77D-05 9.69D-04.
     33 vectors produced by pass  4 Test12= 6.28D-15 2.56D-09 XBig12= 1.70D-08 2.25D-05.
     27 vectors produced by pass  5 Test12= 6.28D-15 2.56D-09 XBig12= 1.74D-11 4.56D-07.
      5 vectors produced by pass  6 Test12= 6.28D-15 2.56D-09 XBig12= 1.83D-14 1.88D-08.
 InvSVY:  IOpt=1 It=  1 EMax= 2.00D-15
 Solved reduced A of dimension   197 with    33 vectors.
 End of Minotr F.D. properties file   721 does not exist.
 End of Minotr F.D. properties file   722 does not exist.
 End of Minotr F.D. properties file   788 does not exist.
 Calling FoFJK, ICntrl=    100127 FMM=F ISym2X=0 I1Cent= 0 IOpClX= 0 NMat=1 NMatS=1 NMatT=0.
 -------------------------------------------------------------------
 Center     Atomic                   Forces (Hartrees/Bohr)
 Number     Number              X              Y              Z
 -------------------------------------------------------------------
      1        6          -0.038876820   -0.027525275   -0.031446665
      2        6           0.014152351    0.018947374    0.001275564
      3        6           0.004059210   -0.005680411    0.000433403
      4        8          -0.029620091    0.035686424    0.008109304
      5        8          -0.012082660    0.017134282    0.017372336
      6        8          -0.002288161    0.000839651    0.000945056
      7        1           0.051093573   -0.043520719   -0.005909473
      8        1           0.008356567    0.001096392    0.003520965
      9        1           0.007215912    0.000663518    0.004214291
     10        1           0.000687568    0.000994425   -0.001087420
     11        1          -0.001220718   -0.000370750    0.001314079
     12        1          -0.001476733    0.001735089    0.001258560
 -------------------------------------------------------------------
 Cartesian Forces:  Max     0.051093573 RMS     0.017903005
 IRC-IRC-IRC-IRC-IRC-IRC-IRC-IRC-IRC-IRC-IRC-IRC-IRC-IRC-IRC-IRC-IRC-IRC
 Pt  4 Step number   1 out of a maximum of 100
 Modified Bulirsch-Stoer Extrapolation Cycles:
    EPS =    0.000010000000000
      PEZero:  N= 2 I= 1 D=  8.68D-04 Err=  1.97D-05
      PEZero:  N= 3 I= 2 D=  8.68D-04 Err=  1.31D-05
      PEZero:  N= 3 I= 1 D=  1.74D-03 Err=  2.29D-08
 Maximum DWI energy   std dev =  0.000019429 at pt    13
 Maximum DWI gradient std dev =  0.001426701 at pt    32
 CORRECTOR INTEGRATION CONVERGENCE:
   Recorrection delta-x convergence threshold:    0.010000
   Delta-x Convergence Met
 Point Number:   4          Path Number:   1
   CHANGE IN THE REACTION COORDINATE =    0.16656
   NET REACTION COORDINATE UP TO THIS POINT =    0.66587
  # OF POINTS ALONG THE PATH =   4
  # OF STEPS =   1

 Calculating another point on the path.
 IRC-IRC-IRC-IRC-IRC-IRC-IRC-IRC-IRC-IRC-IRC-IRC-IRC-IRC-IRC-IRC-IRC-IRC
                          Input orientation:                          
 ---------------------------------------------------------------------
 Center     Atomic      Atomic             Coordinates (Angstroms)
 Number     Number       Type             X           Y           Z
 ---------------------------------------------------------------------
      1          6           0       -2.198088    0.719495    0.124914
      2          6           0        0.990412   -1.045927    0.051235
      3          6           0        2.027103    0.065964   -0.087253
      4          8           0       -2.121355   -0.424169   -0.426327
      5          8           0       -0.265677   -0.586689    0.377996
      6          8           0        1.787844    1.250859   -0.062176
      7          1           0       -0.756207    0.485990    0.571051
      8          1           0       -2.094315    1.616251   -0.510963
      9          1           0       -2.790539    0.819751    1.050653
     10          1           0        3.065063   -0.308600   -0.219452
     11          1           0        0.944560   -1.518383   -0.950303
     12          1           0        1.384216   -1.802666    0.754381
 ---------------------------------------------------------------------
                    Distance matrix (angstroms):
                    1          2          3          4          5
     1  C    0.000000
     2  C    3.645364   0.000000
     3  C    4.280696   1.526502   0.000000
     4  O    1.271898   3.209010   4.191051   0.000000
     5  O    2.346141   1.376747   2.428838   2.029012   0.000000
     6  O    4.025544   2.433924   1.209070   4.268509   2.790570
     7  H    1.527280   2.380684   2.890779   1.920100   1.195211
     8  H    1.104210   4.113247   4.423687   2.042354   2.997851
     9  H    1.103649   4.333034   5.007265   2.043677   2.967401
    10  H    5.373670   2.218355   1.111367   5.191829   3.395307
    11  H    4.005051   1.108330   2.104023   3.297225   2.024131
    12  H    4.426108   1.105509   2.147889   3.947576   2.083846
                    6          7          8          9         10
     6  O    0.000000
     7  H    2.730971   0.000000
     8  H    3.925058   2.058829   0.000000
     9  H    4.731367   2.116582   1.886209   0.000000
    10  H    2.021864   3.982258   5.514455   6.097083   0.000000
    11  H    3.027969   3.037210   4.387906   4.839594   2.548382
    12  H    3.186487   3.138944   5.038876   4.938971   2.450680
                   11         12
    11  H    0.000000
    12  H    1.783273   0.000000
 Symmetry turned off by external request.
 Stoichiometry    C3H6O3
 Framework group  C1[X(C3H6O3)]
 Deg. of freedom    30
 Full point group                 C1      NOp   1
 Rotational constants (GHZ):           7.2069967           1.8186525           1.5288794
 Standard basis: 6-31+G(d) (6D, 7F)
   126 basis functions,   216 primitive gaussians,   126 cartesian basis functions
    24 alpha electrons       24 beta electrons
       nuclear repulsion energy       230.8096589977 Hartrees.
 NAtoms=   12 NActive=   12 NUniq=   12 SFac= 1.00D+00 NAtFMM=   60 NAOKFM=F Big=F
 Integral buffers will be    131072 words long.
 Raffenetti 2 integral format.
 Two-electron integral symmetry is turned off.
 One-electron integrals computed using PRISM.
 NBasis=   126 RedAO= T EigKep=  1.70D-04  NBF=   126
 NBsUse=   126 1.00D-06 EigRej= -1.00D+00 NBFU=   126
 Initial guess from the checkpoint file:  "/scratch/bell/zhao922/YARP/paper-example/KHP-network/pp_0/IRC-folder/Gau-52563.chk"
 B after Tr=     0.001519   -0.000942    0.000073
         Rot=    1.000000   -0.000185   -0.000091    0.000024 Ang=  -0.02 deg.
 ExpMin= 4.38D-02 ExpMax= 5.48D+03 ExpMxC= 8.25D+02 IAcc=3 IRadAn=         5 AccDes= 0.00D+00
 Harris functional with IExCor=  402 and IRadAn=       5 diagonalized for initial guess.
 HarFok:  IExCor=  402 AccDes= 0.00D+00 IRadAn=         5 IDoV= 1 UseB2=F ITyADJ=14
 ICtDFT=  3500011 ScaDFX=  1.000000  1.000000  1.000000  1.000000
 FoFCou: FMM=F IPFlag=           0 FMFlag=      100000 FMFlg1=           0
         NFxFlg=           0 DoJE=T BraDBF=F KetDBF=T FulRan=T
         wScrn=  0.000000 ICntrl=       500 IOpCl=  0 I1Cent=   200000004 NGrid=           0
         NMat0=    1 NMatS0=      1 NMatT0=    0 NMatD0=    1 NMtDS0=    0 NMtDT0=    0
 Symmetry not used in FoFCou.
 Keep R1 ints in memory in canonical form, NReq=47237243.
 Requested convergence on RMS density matrix=1.00D-08 within 128 cycles.
 Requested convergence on MAX density matrix=1.00D-06.
 Requested convergence on             energy=1.00D-06.
 No special actions if energy rises.
 SCF Done:  E(RB3LYP) =  -343.448935774     A.U. after   13 cycles
            NFock= 13  Conv=0.38D-08     -V/T= 2.0092
 DoSCS=F DFT=T ScalE2(SS,OS)=  1.000000  1.000000
 Range of M.O.s used for correlation:     1   126
 NBasis=   126 NAE=    24 NBE=    24 NFC=     0 NFV=     0
 NROrb=    126 NOA=    24 NOB=    24 NVA=   102 NVB=   102

 **** Warning!!: The largest alpha MO coefficient is  0.31435920D+02

 Symmetrizing basis deriv contribution to polar:
 IMax=3 JMax=2 DiffMx= 0.00D+00
 G2DrvN: will do    13 centers at a time, making    1 passes.
 Calling FoFCou, ICntrl=  3107 FMM=F I1Cent=   0 AccDes= 0.00D+00.
 End of G2Drv F.D. properties file   721 does not exist.
 End of G2Drv F.D. properties file   722 does not exist.
 End of G2Drv F.D. properties file   788 does not exist.
          IDoAtm=111111111111
          Differentiating once with respect to nuclear coordinates.
 Keep R1 ints in memory in canonical form, NReq=47193279.
          There are    39 degrees of freedom in the 1st order CPHF.  IDoFFX=6 NUNeed=     0.
     33 vectors produced by pass  0 Test12= 6.28D-15 2.56D-09 XBig12= 1.94D-01 1.60D-01.
 AX will form    33 AO Fock derivatives at one time.
     33 vectors produced by pass  1 Test12= 6.28D-15 2.56D-09 XBig12= 1.30D-01 2.04D-01.
     33 vectors produced by pass  2 Test12= 6.28D-15 2.56D-09 XBig12= 2.72D-03 9.26D-03.
     33 vectors produced by pass  3 Test12= 6.28D-15 2.56D-09 XBig12= 1.38D-05 7.88D-04.
     33 vectors produced by pass  4 Test12= 6.28D-15 2.56D-09 XBig12= 1.46D-08 1.89D-05.
     28 vectors produced by pass  5 Test12= 6.28D-15 2.56D-09 XBig12= 1.54D-11 4.61D-07.
      5 vectors produced by pass  6 Test12= 6.28D-15 2.56D-09 XBig12= 1.69D-14 1.90D-08.
 InvSVY:  IOpt=1 It=  1 EMax= 1.89D-15
 Solved reduced A of dimension   198 with    33 vectors.
 End of Minotr F.D. properties file   721 does not exist.
 End of Minotr F.D. properties file   722 does not exist.
 End of Minotr F.D. properties file   788 does not exist.
 Calling FoFJK, ICntrl=    100127 FMM=F ISym2X=0 I1Cent= 0 IOpClX= 0 NMat=1 NMatS=1 NMatT=0.
 -------------------------------------------------------------------
 Center     Atomic                   Forces (Hartrees/Bohr)
 Number     Number              X              Y              Z
 -------------------------------------------------------------------
      1        6          -0.049503208   -0.032113975   -0.038306249
      2        6           0.015907148    0.022685701    0.000069185
      3        6           0.004702836   -0.006776051    0.000548545
      4        8          -0.033966900    0.043385911    0.009836091
      5        8          -0.012059060    0.020271139    0.023424822
      6        8          -0.002791879    0.000924798    0.001139577
      7        1           0.061986687   -0.052878511   -0.007532114
      8        1           0.009789262    0.001257546    0.004246368
      9        1           0.008491573    0.000751899    0.004891447
     10        1           0.000832712    0.001146626   -0.001275852
     11        1          -0.001213529   -0.000626321    0.001591290
     12        1          -0.002175641    0.001971237    0.001366890
 -------------------------------------------------------------------
 Cartesian Forces:  Max     0.061986687 RMS     0.021704382
 IRC-IRC-IRC-IRC-IRC-IRC-IRC-IRC-IRC-IRC-IRC-IRC-IRC-IRC-IRC-IRC-IRC-IRC
 Pt  5 Step number   1 out of a maximum of 100
 Modified Bulirsch-Stoer Extrapolation Cycles:
    EPS =    0.000010000000000
      PEZero:  N= 2 I= 1 D=  8.68D-04 Err=  9.99D-06
 Maximum DWI energy   std dev =  0.000042307 at pt    14
 Maximum DWI gradient std dev =  0.002855855 at pt    19
 CORRECTOR INTEGRATION CONVERGENCE:
   Recorrection delta-x convergence threshold:    0.010000
   Delta-x Convergence Met
 Point Number:   5          Path Number:   1
   CHANGE IN THE REACTION COORDINATE =    0.16657
   NET REACTION COORDINATE UP TO THIS POINT =    0.83244
  # OF POINTS ALONG THE PATH =   5
  # OF STEPS =   1

 Calculating another point on the path.
 IRC-IRC-IRC-IRC-IRC-IRC-IRC-IRC-IRC-IRC-IRC-IRC-IRC-IRC-IRC-IRC-IRC-IRC
                          Input orientation:                          
 ---------------------------------------------------------------------
 Center     Atomic      Atomic             Coordinates (Angstroms)
 Number     Number       Type             X           Y           Z
 ---------------------------------------------------------------------
      1          6           0       -2.202392    0.716804    0.121644
      2          6           0        0.991716   -1.044005    0.051192
      3          6           0        2.027500    0.065395   -0.087206
      4          8           0       -2.123496   -0.421385   -0.425705
      5          8           0       -0.266315   -0.585478    0.379555
      6          8           0        1.787664    1.250914   -0.062103
      7          1           0       -0.694054    0.433280    0.563280
      8          1           0       -2.084487    1.617508   -0.506643
      9          1           0       -2.781987    0.820503    1.055548
     10          1           0        3.065904   -0.307465   -0.220736
     11          1           0        0.943473   -1.519104   -0.948690
     12          1           0        1.381870   -1.800719    0.755698
 ---------------------------------------------------------------------
                    Distance matrix (angstroms):
                    1          2          3          4          5
     1  C    0.000000
     2  C    3.647977   0.000000
     3  C    4.284850   1.524064   0.000000
     4  O    1.265420   3.212418   4.193126   0.000000
     5  O    2.347520   1.378662   2.429627   2.030884   0.000000
     6  O    4.029837   2.431670   1.209796   4.269187   2.790380
     7  H    1.597032   2.299223   2.822292   1.936968   1.120082
     8  H    1.104497   4.105832   4.415135   2.040872   2.990693
     9  H    1.104020   4.327349   5.000724   2.042059   2.960128
    10  H    5.377852   2.217813   1.111367   5.194695   3.397252
    11  H    4.005167   1.108067   2.104260   3.299212   2.024717
    12  H    4.425707   1.105063   2.147023   3.947893   2.082020
                    6          7          8          9         10
     6  O    0.000000
     7  H    2.686737   0.000000
     8  H    3.914788   2.116704   0.000000
     9  H    4.723992   2.179846   1.887370   0.000000
    10  H    2.021783   3.911607   5.505796   6.090898   0.000000
    11  H    3.028481   2.962997   4.382041   4.834230   2.550039
    12  H    3.185267   3.055689   5.029256   4.929342   2.453406
                   11         12
    11  H    0.000000
    12  H    1.782256   0.000000
 Symmetry turned off by external request.
 Stoichiometry    C3H6O3
 Framework group  C1[X(C3H6O3)]
 Deg. of freedom    30
 Full point group                 C1      NOp   1
 Rotational constants (GHZ):           7.2287750           1.8171470           1.5287025
 Standard basis: 6-31+G(d) (6D, 7F)
   126 basis functions,   216 primitive gaussians,   126 cartesian basis functions
    24 alpha electrons       24 beta electrons
       nuclear repulsion energy       231.0949991622 Hartrees.
 NAtoms=   12 NActive=   12 NUniq=   12 SFac= 1.00D+00 NAtFMM=   60 NAOKFM=F Big=F
 Integral buffers will be    131072 words long.
 Raffenetti 2 integral format.
 Two-electron integral symmetry is turned off.
 One-electron integrals computed using PRISM.
 NBasis=   126 RedAO= T EigKep=  1.68D-04  NBF=   126
 NBsUse=   126 1.00D-06 EigRej= -1.00D+00 NBFU=   126
 Initial guess from the checkpoint file:  "/scratch/bell/zhao922/YARP/paper-example/KHP-network/pp_0/IRC-folder/Gau-52563.chk"
 B after Tr=     0.001520   -0.000939    0.000065
         Rot=    1.000000   -0.000183   -0.000091    0.000025 Ang=  -0.02 deg.
 ExpMin= 4.38D-02 ExpMax= 5.48D+03 ExpMxC= 8.25D+02 IAcc=3 IRadAn=         5 AccDes= 0.00D+00
 Harris functional with IExCor=  402 and IRadAn=       5 diagonalized for initial guess.
 HarFok:  IExCor=  402 AccDes= 0.00D+00 IRadAn=         5 IDoV= 1 UseB2=F ITyADJ=14
 ICtDFT=  3500011 ScaDFX=  1.000000  1.000000  1.000000  1.000000
 FoFCou: FMM=F IPFlag=           0 FMFlag=      100000 FMFlg1=           0
         NFxFlg=           0 DoJE=T BraDBF=F KetDBF=T FulRan=T
         wScrn=  0.000000 ICntrl=       500 IOpCl=  0 I1Cent=   200000004 NGrid=           0
         NMat0=    1 NMatS0=      1 NMatT0=    0 NMatD0=    1 NMtDS0=    0 NMtDT0=    0
 Symmetry not used in FoFCou.
 Keep R1 ints in memory in canonical form, NReq=47237243.
 Requested convergence on RMS density matrix=1.00D-08 within 128 cycles.
 Requested convergence on MAX density matrix=1.00D-06.
 Requested convergence on             energy=1.00D-06.
 No special actions if energy rises.
 SCF Done:  E(RB3LYP) =  -343.463927884     A.U. after   12 cycles
            NFock= 12  Conv=0.57D-08     -V/T= 2.0091
 DoSCS=F DFT=T ScalE2(SS,OS)=  1.000000  1.000000
 Range of M.O.s used for correlation:     1   126
 NBasis=   126 NAE=    24 NBE=    24 NFC=     0 NFV=     0
 NROrb=    126 NOA=    24 NOB=    24 NVA=   102 NVB=   102

 **** Warning!!: The largest alpha MO coefficient is  0.30469717D+02

 Symmetrizing basis deriv contribution to polar:
 IMax=3 JMax=2 DiffMx= 0.00D+00
 G2DrvN: will do    13 centers at a time, making    1 passes.
 Calling FoFCou, ICntrl=  3107 FMM=F I1Cent=   0 AccDes= 0.00D+00.
 End of G2Drv F.D. properties file   721 does not exist.
 End of G2Drv F.D. properties file   722 does not exist.
 End of G2Drv F.D. properties file   788 does not exist.
          IDoAtm=111111111111
          Differentiating once with respect to nuclear coordinates.
 Keep R1 ints in memory in canonical form, NReq=47193279.
          There are    39 degrees of freedom in the 1st order CPHF.  IDoFFX=6 NUNeed=     0.
     33 vectors produced by pass  0 Test12= 6.28D-15 2.56D-09 XBig12= 1.89D-01 1.34D-01.
 AX will form    33 AO Fock derivatives at one time.
     33 vectors produced by pass  1 Test12= 6.28D-15 2.56D-09 XBig12= 1.01D-01 1.78D-01.
     33 vectors produced by pass  2 Test12= 6.28D-15 2.56D-09 XBig12= 2.33D-03 8.52D-03.
     33 vectors produced by pass  3 Test12= 6.28D-15 2.56D-09 XBig12= 1.09D-05 6.67D-04.
     33 vectors produced by pass  4 Test12= 6.28D-15 2.56D-09 XBig12= 1.31D-08 1.86D-05.
     27 vectors produced by pass  5 Test12= 6.28D-15 2.56D-09 XBig12= 1.36D-11 4.70D-07.
      4 vectors produced by pass  6 Test12= 6.28D-15 2.56D-09 XBig12= 1.56D-14 1.40D-08.
 InvSVY:  IOpt=1 It=  1 EMax= 1.44D-15
 Solved reduced A of dimension   196 with    33 vectors.
 End of Minotr F.D. properties file   721 does not exist.
 End of Minotr F.D. properties file   722 does not exist.
 End of Minotr F.D. properties file   788 does not exist.
 Calling FoFJK, ICntrl=    100127 FMM=F ISym2X=0 I1Cent= 0 IOpClX= 0 NMat=1 NMatS=1 NMatT=0.
 -------------------------------------------------------------------
 Center     Atomic                   Forces (Hartrees/Bohr)
 Number     Number              X              Y              Z
 -------------------------------------------------------------------
      1        6          -0.056494747   -0.034221626   -0.042263811
      2        6           0.016115625    0.024640606   -0.000981699
      3        6           0.005148885   -0.007199889    0.000589531
      4        8          -0.036686074    0.048189220    0.010537783
      5        8          -0.006868191    0.015842423    0.027177761
      6        8          -0.003159734    0.000833654    0.001307124
      7        1           0.064806125   -0.052618264   -0.008060430
      8        1           0.010608447    0.001315153    0.004746652
      9        1           0.009287585    0.000805757    0.005232115
     10        1           0.000899914    0.001201861   -0.001394822
     11        1          -0.001020435   -0.000866303    0.001762240
     12        1          -0.002637399    0.002077407    0.001347555
 -------------------------------------------------------------------
 Cartesian Forces:  Max     0.064806125 RMS     0.023112394
 IRC-IRC-IRC-IRC-IRC-IRC-IRC-IRC-IRC-IRC-IRC-IRC-IRC-IRC-IRC-IRC-IRC-IRC
 Pt  6 Step number   1 out of a maximum of 100
 Modified Bulirsch-Stoer Extrapolation Cycles:
    EPS =    0.000010000000000
      PEZero:  N= 2 I= 1 D=  8.68D-04 Err=  2.77D-05
      PEZero:  N= 3 I= 2 D=  8.68D-04 Err=  1.85D-05
      PEZero:  N= 3 I= 1 D=  1.74D-03 Err=  6.06D-08
 Maximum DWI energy   std dev =  0.000061176 at pt    28
 Maximum DWI gradient std dev =  0.005624197 at pt    28
 CORRECTOR INTEGRATION CONVERGENCE:
   Recorrection delta-x convergence threshold:    0.010000
   Delta-x Convergence Met
 Point Number:   6          Path Number:   1
   CHANGE IN THE REACTION COORDINATE =    0.16657
   NET REACTION COORDINATE UP TO THIS POINT =    0.99901
  # OF POINTS ALONG THE PATH =   6
  # OF STEPS =   1

 Calculating another point on the path.
 IRC-IRC-IRC-IRC-IRC-IRC-IRC-IRC-IRC-IRC-IRC-IRC-IRC-IRC-IRC-IRC-IRC-IRC
                          Input orientation:                          
 ---------------------------------------------------------------------
 Center     Atomic      Atomic             Coordinates (Angstroms)
 Number     Number       Type             X           Y           Z
 ---------------------------------------------------------------------
      1          6           0       -2.207336    0.713905    0.118003
      2          6           0        0.993050   -1.041902    0.051074
      3          6           0        2.027950    0.064791   -0.087158
      4          8           0       -2.125877   -0.418254   -0.425043
      5          8           0       -0.266470   -0.584804    0.381335
      6          8           0        1.787455    1.250959   -0.062015
      7          1           0       -0.630564    0.384386    0.555406
      8          1           0       -2.073635    1.618838   -0.501720
      9          1           0       -2.772440    0.821331    1.060869
     10          1           0        3.066810   -0.306262   -0.222175
     11          1           0        0.942615   -1.520083   -0.946891
     12          1           0        1.379126   -1.798630    0.757009
 ---------------------------------------------------------------------
                    Distance matrix (angstroms):
                    1          2          3          4          5
     1  C    0.000000
     2  C    3.651001   0.000000
     3  C    4.289649   1.521478   0.000000
     4  O    1.258300   3.216104   4.195447   0.000000
     5  O    2.350096   1.380000   2.430190   2.033563   0.000000
     6  O    4.034748   2.429214   1.210563   4.269921   2.790196
     7  H    1.669166   2.219182   2.753675   1.959968   1.049855
     8  H    1.104915   4.097521   4.405669   2.039203   2.983567
     9  H    1.104481   4.320907   4.993401   2.040232   2.952772
    10  H    5.382665   2.217276   1.111368   5.197854   3.398906
    11  H    4.005858   1.107761   2.104500   3.301817   2.025048
    12  H    4.425367   1.104552   2.146142   3.948130   2.079060
                    6          7          8          9         10
     6  O    0.000000
     7  H    2.641774   0.000000
     8  H    3.903420   2.173440   0.000000
     9  H    4.715728   2.243668   1.888394   0.000000
    10  H    2.021716   3.840859   5.496210   6.083954   0.000000
    11  H    3.029098   2.891158   4.375930   4.828556   2.551623
    12  H    3.183947   2.974064   5.018470   4.918538   2.456469
                   11         12
    11  H    0.000000
    12  H    1.780844   0.000000
 Symmetry turned off by external request.
 Stoichiometry    C3H6O3
 Framework group  C1[X(C3H6O3)]
 Deg. of freedom    30
 Full point group                 C1      NOp   1
 Rotational constants (GHZ):           7.2496456           1.8153606           1.5282838
 Standard basis: 6-31+G(d) (6D, 7F)
   126 basis functions,   216 primitive gaussians,   126 cartesian basis functions
    24 alpha electrons       24 beta electrons
       nuclear repulsion energy       231.4089652280 Hartrees.
 NAtoms=   12 NActive=   12 NUniq=   12 SFac= 1.00D+00 NAtFMM=   60 NAOKFM=F Big=F
 Integral buffers will be    131072 words long.
 Raffenetti 2 integral format.
 Two-electron integral symmetry is turned off.
 One-electron integrals computed using PRISM.
 NBasis=   126 RedAO= T EigKep=  1.66D-04  NBF=   126
 NBsUse=   126 1.00D-06 EigRej= -1.00D+00 NBFU=   126
 Initial guess from the checkpoint file:  "/scratch/bell/zhao922/YARP/paper-example/KHP-network/pp_0/IRC-folder/Gau-52563.chk"
 B after Tr=     0.001584   -0.000863    0.000084
         Rot=    1.000000   -0.000175   -0.000096    0.000034 Ang=  -0.02 deg.
 ExpMin= 4.38D-02 ExpMax= 5.48D+03 ExpMxC= 8.25D+02 IAcc=3 IRadAn=         5 AccDes= 0.00D+00
 Harris functional with IExCor=  402 and IRadAn=       5 diagonalized for initial guess.
 HarFok:  IExCor=  402 AccDes= 0.00D+00 IRadAn=         5 IDoV= 1 UseB2=F ITyADJ=14
 ICtDFT=  3500011 ScaDFX=  1.000000  1.000000  1.000000  1.000000
 FoFCou: FMM=F IPFlag=           0 FMFlag=      100000 FMFlg1=           0
         NFxFlg=           0 DoJE=T BraDBF=F KetDBF=T FulRan=T
         wScrn=  0.000000 ICntrl=       500 IOpCl=  0 I1Cent=   200000004 NGrid=           0
         NMat0=    1 NMatS0=      1 NMatT0=    0 NMatD0=    1 NMtDS0=    0 NMtDT0=    0
 Symmetry not used in FoFCou.
 Keep R1 ints in memory in canonical form, NReq=47237243.
 Requested convergence on RMS density matrix=1.00D-08 within 128 cycles.
 Requested convergence on MAX density matrix=1.00D-06.
 Requested convergence on             energy=1.00D-06.
 No special actions if energy rises.
 SCF Done:  E(RB3LYP) =  -343.478136487     A.U. after   11 cycles
            NFock= 11  Conv=0.78D-08     -V/T= 2.0089
 DoSCS=F DFT=T ScalE2(SS,OS)=  1.000000  1.000000
 Range of M.O.s used for correlation:     1   126
 NBasis=   126 NAE=    24 NBE=    24 NFC=     0 NFV=     0
 NROrb=    126 NOA=    24 NOB=    24 NVA=   102 NVB=   102

 **** Warning!!: The largest alpha MO coefficient is  0.27777775D+02

 Symmetrizing basis deriv contribution to polar:
 IMax=3 JMax=2 DiffMx= 0.00D+00
 G2DrvN: will do    13 centers at a time, making    1 passes.
 Calling FoFCou, ICntrl=  3107 FMM=F I1Cent=   0 AccDes= 0.00D+00.
[...]
  13                   -0.40716  -0.17433   0.71771  -1.44163  -1.11258
  14                   -0.40278  -0.17003   0.73611  -1.45282  -1.10646
  15                   -0.39836  -0.16668   0.75364  -1.46288  -1.10032
  16                   -0.39394  -0.16417   0.77023  -1.47182  -1.09422
  17                   -0.38959  -0.16237   0.78582  -1.47970  -1.08821
  18                   -0.38532  -0.16117   0.80045  -1.48661  -1.08231
  19                   -0.38116  -0.16047   0.81417  -1.49263  -1.07653
  20                   -0.37711  -0.16021   0.82705  -1.49786  -1.07086
  21                   -0.37319  -0.16031   0.83917  -1.50241  -1.06530
  22                   -0.36937  -0.16074   0.85062  -1.50634  -1.05982
  23                   -0.36567  -0.16145   0.86146  -1.50974  -1.05440
  24                   -0.36207  -0.16244   0.87177  -1.51265  -1.04904
  25                   -0.35856  -0.16367   0.88159  -1.51515  -1.04370
  26                   -0.35515  -0.16515   0.89097  -1.51726  -1.03838
  27                   -0.35183  -0.16686   0.89993  -1.51904  -1.03304
  28                   -0.34860  -0.16882   0.90849  -1.52052  -1.02769
  29                   -0.34545  -0.17101   0.91665  -1.52172  -1.02229
  30                   -0.34239  -0.17344   0.92439  -1.52267  -1.01685
  31                   -0.33943  -0.17612   0.93170  -1.52338  -1.01134
  32                   -0.33656  -0.17905   0.93850  -1.52387  -1.00578
  33                   -0.33380  -0.18222   0.94473  -1.52414  -1.00015
  34                   -0.33116  -0.18562   0.95026  -1.52418  -0.99447
  35                   -0.32864  -0.18924   0.95494  -1.52398  -0.98877
  36                   -0.32625  -0.19303   0.95856  -1.52350  -0.98310
  37                   -0.32399  -0.19694   0.96085  -1.52273  -0.97755
  38                   -0.32184  -0.20085   0.96157  -1.52169  -0.97225
  39                   -0.31976  -0.20460   0.96058  -1.52046  -0.96743
  40                   -0.31774  -0.20800   0.95826  -1.51927  -0.96331
  41                   -0.31584  -0.21085   0.95509  -1.51823  -0.96007
  42                   -0.31405  -0.21329   0.95215  -1.51758  -0.95735
  43                   -0.31245  -0.21521   0.94965  -1.51739  -0.95526
  44                   -0.31104  -0.21679   0.94760  -1.51751  -0.95348
  45                   -0.30978  -0.21817   0.94593  -1.51786  -0.95186
  46                   -0.30860  -0.21946   0.94458  -1.51839  -0.95029
  47                   -0.30746  -0.22075   0.94348  -1.51912  -0.94867
  48                   -0.30624  -0.22220   0.94262  -1.52010  -0.94686
  49                   -0.30480  -0.22405   0.94212  -1.52155  -0.94468
  50                   -0.30311  -0.22642   0.94251  -1.52354  -0.94229
  51                   -0.30135  -0.22912   0.94424  -1.52588  -0.94017
  52                   -0.29949  -0.23220   0.94756  -1.52855  -0.93847
  53                   -0.29741  -0.23584   0.95258  -1.53162  -0.93724
  54                   -0.29485  -0.24016   0.95910  -1.53518  -0.93655
  55                   -0.29155  -0.24521   0.96639  -1.53917  -0.93639
  56                   -0.28738  -0.25086   0.97344  -1.54333  -0.93655
  57                   -0.28243  -0.25701   0.97961  -1.54742  -0.93678
  58                   -0.27690  -0.26363   0.98484  -1.55128  -0.93693
  59                   -0.27101  -0.27072   0.98934  -1.55485  -0.93692
  60                   -0.26492  -0.27833   0.99335  -1.55812  -0.93674
  61                   -0.25876  -0.28647   0.99709  -1.56114  -0.93640
  62                   -0.25262  -0.29514   1.00067  -1.56395  -0.93591
  63                   -0.24656  -0.30432   1.00420  -1.56661  -0.93524
  64                   -0.24061  -0.31398   1.00769  -1.56917  -0.93441
  65                   -0.23481  -0.32408   1.01116  -1.57169  -0.93340
  66                   -0.22919  -0.33458   1.01463  -1.57421  -0.93220
  67                   -0.22377  -0.34544   1.01808  -1.57676  -0.93079
  68                   -0.21858  -0.35662   1.02150  -1.57938  -0.92918
  69                   -0.21362  -0.36810   1.02488  -1.58206  -0.92736
  70                   -0.20891  -0.37984   1.02822  -1.58483  -0.92532
  71                   -0.20448  -0.39184   1.03149  -1.58766  -0.92307
  72                   -0.20032  -0.40407   1.03468  -1.59055  -0.92062
  73                   -0.19645  -0.41652   1.03777  -1.59347  -0.91798
  74                   -0.19286  -0.42920   1.04075  -1.59642  -0.91517
  75                   -0.18956  -0.44208   1.04359  -1.59936  -0.91221
  76                   -0.18653  -0.45517   1.04627  -1.60227  -0.90912
  77                   -0.18375  -0.46845   1.04875  -1.60514  -0.90592
  78                   -0.18121  -0.48193   1.05102  -1.60794  -0.90264
  79                   -0.17890  -0.49560   1.05304  -1.61065  -0.89930
  80                   -0.17679  -0.50946   1.05478  -1.61326  -0.89592
  81                   -0.17486  -0.52351   1.05621  -1.61574  -0.89252
                          X12       Y12       Z12
   1                    1.13329  -1.91406   0.38858
   2                    1.13371  -1.91198   0.39385
   3                    1.13491  -1.90891   0.40209
   4                    1.13679  -1.90497   0.41287
   5                    1.13919  -1.90034   0.42568
   6                    1.14197  -1.89519   0.43998
   7                    1.14505  -1.88973   0.45525
   8                    1.14835  -1.88413   0.47107
   9                    1.15185  -1.87860   0.48706
  10                    1.15557  -1.87329   0.50289
  11                    1.15955  -1.86838   0.51829
  12                    1.16386  -1.86400   0.53304
  13                    1.16855  -1.86024   0.54696
  14                    1.17364  -1.85717   0.55993
  15                    1.17916  -1.85480   0.57189
  16                    1.18509  -1.85310   0.58284
  17                    1.19139  -1.85201   0.59283
  18                    1.19803  -1.85145   0.60196
  19                    1.20497  -1.85133   0.61032
  20                    1.21218  -1.85157   0.61803
  21                    1.21963  -1.85207   0.62520
  22                    1.22729  -1.85275   0.63192
  23                    1.23517  -1.85354   0.63831
  24                    1.24324  -1.85437   0.64444
  25                    1.25149  -1.85516   0.65040
  26                    1.25994  -1.85584   0.65626
  27                    1.26856  -1.85634   0.66207
  28                    1.27735  -1.85661   0.66790
  29                    1.28630  -1.85657   0.67379
  30                    1.29539  -1.85615   0.67978
  31                    1.30462  -1.85530   0.68590
  32                    1.31396  -1.85395   0.69215
  33                    1.32338  -1.85205   0.69854
  34                    1.33285  -1.84955   0.70502
  35                    1.34231  -1.84639   0.71155
  36                    1.35167  -1.84255   0.71803
  37                    1.36078  -1.83803   0.72433
  38                    1.36934  -1.83291   0.73027
  39                    1.37686  -1.82740   0.73562
  40                    1.38261  -1.82195   0.74020
  41                    1.38631  -1.81708   0.74382
  42                    1.38836  -1.81288   0.74691
  43                    1.38858  -1.80958   0.74932
  44                    1.38772  -1.80693   0.75128
  45                    1.38618  -1.80469   0.75293
  46                    1.38420  -1.80266   0.75438
  47                    1.38185  -1.80070   0.75570
  48                    1.37910  -1.79860   0.75702
  49                    1.37591  -1.79609   0.75849
  50                    1.37310  -1.79327   0.76003
  51                    1.37201  -1.79061   0.76136
  52                    1.37329  -1.78827   0.76232
  53                    1.37742  -1.78645   0.76281
  54                    1.38465  -1.78540   0.76277
  55                    1.39456  -1.78541   0.76220
  56                    1.40599  -1.78649   0.76123
  57                    1.41780  -1.78839   0.76004
  58                    1.42938  -1.79079   0.75876
  59                    1.44060  -1.79343   0.75745
  60                    1.45149  -1.79613   0.75616
  61                    1.46214  -1.79878   0.75494
  62                    1.47265  -1.80131   0.75380
  63                    1.48309  -1.80368   0.75276
  64                    1.49353  -1.80587   0.75184
  65                    1.50401  -1.80785   0.75105
  66                    1.51458  -1.80960   0.75041
  67                    1.52527  -1.81112   0.74991
  68                    1.53609  -1.81239   0.74957
  69                    1.54708  -1.81339   0.74937
  70                    1.55824  -1.81414   0.74930
  71                    1.56957  -1.81462   0.74936
  72                    1.58106  -1.81484   0.74951
  73                    1.59271  -1.81482   0.74975
  74                    1.60448  -1.81457   0.75004
  75                    1.61635  -1.81410   0.75035
  76                    1.62830  -1.81345   0.75066
  77                    1.64030  -1.81263   0.75093
  78                    1.65230  -1.81169   0.75113
  79                    1.66429  -1.81065   0.75122
  80                    1.67623  -1.80953   0.75118
  81                    1.68808  -1.80838   0.75097
 --------------------------------------------------------------------------
 
 Total number of points:                   80
 Total number of gradient calculations:    82
 Total number of Hessian calculations:     81
 IRC-IRC-IRC-IRC-IRC-IRC-IRC-IRC-IRC-IRC-IRC-IRC-IRC-IRC-IRC-IRC-IRC-IRC
                          Input orientation:                          
 ---------------------------------------------------------------------
 Center     Atomic      Atomic             Coordinates (Angstroms)
 Number     Number       Type             X           Y           Z
 ---------------------------------------------------------------------
      1          6           0       -2.224172    0.741727    0.094565
      2          6           0        0.757557   -1.010560   -0.116196
      3          6           0        1.885994    0.019774   -0.156705
      4          8           0       -1.512038   -0.410126   -0.368349
      5          8           0       -0.397565   -0.585117    0.575766
      6          8           0        1.762827    1.216553   -0.041040
      7          1           0       -1.534158    1.413636    0.611371
      8          1           0       -2.615233    1.234976   -0.802220
      9          1           0       -3.046421    0.450803    0.759811
     10          1           0        2.888731   -0.437043   -0.326263
     11          1           0        0.509704   -1.295131   -1.148400
     12          1           0        1.133303   -1.914069    0.388591
 ---------------------------------------------------------------------
                    Distance matrix (angstroms):
                    1          2          3          4          5
     1  C    0.000000
     2  C    3.464916   0.000000
     3  C    4.180649   1.528594   0.000000
     4  O    1.431150   2.361179   3.431651   0.000000
     5  O    2.308368   1.412133   2.473267   1.471062   0.000000
     6  O    4.017463   2.444637   1.208648   3.671233   2.879889
     7  H    1.093009   3.414387   3.772299   2.070373   2.299593
     8  H    1.095648   4.109596   4.706852   2.027719   3.182708
     9  H    1.096942   4.168120   5.035326   2.090042   2.850165
    10  H    5.263874   2.216969   1.114859   4.401052   3.411059
    11  H    3.628751   1.099026   2.146301   2.340759   2.073645
    12  H    4.290961   1.101055   2.145610   3.135703   2.035855
                    6          7          8          9         10
     6  O    0.000000
     7  H    3.366689   0.000000
     8  H    4.443775   1.788541   0.000000
     9  H    4.935241   1.798895   1.800220   0.000000
    10  H    2.020740   4.885296   5.771984   6.098677   0.000000
    11  H    3.017469   3.822510   4.035655   4.397224   2.659322
    12  H    3.222061   4.270668   5.038456   4.816692   2.402946
                   11         12
    11  H    0.000000
    12  H    1.770396   0.000000
 Symmetry turned off by external request.
 Stoichiometry    C3H6O3
 Framework group  C1[X(C3H6O3)]
 Deg. of freedom    30
 Full point group                 C1      NOp   1
 Rotational constants (GHZ):           7.1450899           2.1233718           1.7640790

 **********************************************************************

            Population analysis using the SCF Density.

 **********************************************************************

 Alpha  occ. eigenvalues --  -19.22317 -19.22154 -19.17898 -10.30069 -10.26753
 Alpha  occ. eigenvalues --  -10.23867  -1.12743  -1.07113  -0.94788  -0.74702
 Alpha  occ. eigenvalues --   -0.68044  -0.59620  -0.53363  -0.51544  -0.49570
 Alpha  occ. eigenvalues --   -0.46689  -0.44633  -0.44114  -0.41778  -0.39179
 Alpha  occ. eigenvalues --   -0.36050  -0.33341  -0.28575  -0.25433
 Alpha virt. eigenvalues --   -0.05228  -0.01631   0.00609   0.01873   0.03239
 Alpha virt. eigenvalues --    0.03776   0.04197   0.05412   0.06482   0.08228
 Alpha virt. eigenvalues --    0.08804   0.09591   0.10482   0.14130   0.15786
 Alpha virt. eigenvalues --    0.17178   0.17836   0.18867   0.20813   0.21721
 Alpha virt. eigenvalues --    0.22762   0.24051   0.24751   0.25584   0.25821
 Alpha virt. eigenvalues --    0.27063   0.28915   0.29270   0.30180   0.30862
 Alpha virt. eigenvalues --    0.32416   0.34349   0.35494   0.38877   0.43004
 Alpha virt. eigenvalues --    0.46239   0.62731   0.63685   0.64523   0.65745
 Alpha virt. eigenvalues --    0.70490   0.72320   0.77317   0.78270   0.82665
 Alpha virt. eigenvalues --    0.89942   0.92693   0.93127   0.93717   1.03614
 Alpha virt. eigenvalues --    1.05436   1.08139   1.14802   1.16533   1.19942
 Alpha virt. eigenvalues --    1.21171   1.23614   1.24940   1.27311   1.29350
 Alpha virt. eigenvalues --    1.31121   1.34596   1.39155   1.42641   1.50743
 Alpha virt. eigenvalues --    1.51266   1.55750   1.57069   1.61929   1.64390
 Alpha virt. eigenvalues --    1.69590   1.71356   1.78461   1.81515   1.82258
 Alpha virt. eigenvalues --    1.93209   1.98174   2.00558   2.06271   2.07070
 Alpha virt. eigenvalues --    2.08637   2.17503   2.22867   2.26233   2.29162
 Alpha virt. eigenvalues --    2.36671   2.41991   2.46716   2.50222   2.57956
 Alpha virt. eigenvalues --    2.63653   2.78949   2.86067   2.91441   3.06339
 Alpha virt. eigenvalues --    3.16692   4.05160   4.14654   4.20734   4.31044
 Alpha virt. eigenvalues --    4.37887   4.49473
          Condensed to atoms (all electrons):
               1          2          3          4          5          6
     1  C    5.175850  -0.011438  -0.001985   0.116986  -0.044786   0.002937
     2  C   -0.011438   5.745614  -0.053018   0.002161   0.089143  -0.140899
     3  C   -0.001985  -0.053018   5.130105   0.003623  -0.052747   0.502957
     4  O    0.116986   0.002161   0.003623   8.124593   0.122493  -0.000911
     5  O   -0.044786   0.089143  -0.052747   0.122493   8.080142   0.025797
     6  O    0.002937  -0.140899   0.502957  -0.000911   0.025797   8.023155
     7  H    0.390645   0.000803  -0.002568  -0.026134  -0.011592   0.000249
     8  H    0.389508   0.000434  -0.002145  -0.049436   0.007100   0.000038
     9  H    0.385473  -0.003398   0.002369  -0.051900   0.004469  -0.000028
    10  H    0.000817  -0.137525   0.394631  -0.000623   0.008537  -0.070005
    11  H    0.000437   0.374162  -0.035469  -0.008924  -0.014846  -0.003377
    12  H   -0.001435   0.425526  -0.081223   0.002543  -0.055284   0.002498
               7          8          9         10         11         12
     1  C    0.390645   0.389508   0.385473   0.000817   0.000437  -0.001435
     2  C    0.000803   0.000434  -0.003398  -0.137525   0.374162   0.425526
     3  C   -0.002568  -0.002145   0.002369   0.394631  -0.035469  -0.081223
     4  O   -0.026134  -0.049436  -0.051900  -0.000623  -0.008924   0.002543
     5  O   -0.011592   0.007100   0.004469   0.008537  -0.014846  -0.055284
     6  O    0.000249   0.000038  -0.000028  -0.070005  -0.003377   0.002498
     7  H    0.473867  -0.020373  -0.034679   0.000009   0.000144  -0.000037
     8  H   -0.020373   0.512255  -0.038011  -0.000000  -0.000026   0.000008
     9  H   -0.034679  -0.038011   0.542239  -0.000000  -0.000021   0.000011
    10  H    0.000009  -0.000000  -0.000000   0.638644   0.002703   0.005902
    11  H    0.000144  -0.000026  -0.000021   0.002703   0.470283  -0.028228
    12  H   -0.000037   0.000008   0.000011   0.005902  -0.028228   0.519166
 Mulliken charges:
               1
     1  C   -0.403009
     2  C   -0.291565
     3  C    0.195468
     4  O   -0.234471
     5  O   -0.158427
     6  O   -0.342412
     7  H    0.229667
     8  H    0.200647
     9  H    0.193476
    10  H    0.156911
    11  H    0.243162
    12  H    0.210552
 Sum of Mulliken charges =  -0.00000
 Mulliken charges with hydrogens summed into heavy atoms:
               1
     1  C    0.220781
     2  C    0.162150
     3  C    0.352379
     4  O   -0.234471
     5  O   -0.158427
     6  O   -0.342412
 APT charges:
               1
     1  C   -1.201552
     2  C   -0.732184
     3  C   -0.221359
     4  O   -0.164691
     5  O   -0.174730
     6  O   -0.322499
     7  H    0.257540
     8  H    0.521528
     9  H    0.572616
    10  H    0.524617
    11  H    0.426614
    12  H    0.514099
 Sum of APT charges =  -0.00000
 APT charges with hydrogens summed into heavy atoms:
               1
     1  C    0.150132
     2  C    0.208529
     3  C    0.303258
     4  O   -0.164691
     5  O   -0.174730
     6  O   -0.322499
 Electronic spatial extent (au):  <R**2>=            681.8390
 Charge=             -0.0000 electrons
 Dipole moment (field-independent basis, Debye):
    X=              0.1766    Y=             -1.5180    Z=             -0.6678  Tot=              1.6678
 Quadrupole moment (field-independent basis, Debye-Ang):
   XX=            -31.8505   YY=            -37.3517   ZZ=            -35.8530
   XY=             -8.7319   XZ=             -0.8565   YZ=              0.5238
 Traceless Quadrupole moment (field-independent basis, Debye-Ang):
   XX=              3.1679   YY=             -2.3333   ZZ=             -0.8346
   XY=             -8.7319   XZ=             -0.8565   YZ=              0.5238
 Octapole moment (field-independent basis, Debye-Ang**2):
  XXX=             -4.8529  YYY=             -4.0502  ZZZ=             -0.5882  XYY=             -4.0075
  XXY=             -2.0111  XXZ=              1.1391  XZZ=              1.5511  YZZ=              0.6613
  YYZ=              0.2404  XYZ=              0.6608
 Hexadecapole moment (field-independent basis, Debye-Ang**3):
 XXXX=           -585.3286 YYYY=           -192.1702 ZZZZ=            -65.1576 XXXY=            -18.2848
 XXXZ=              5.4109 YYYX=             -1.9737 YYYZ=             -1.6356 ZZZX=             10.8731
 ZZZY=             -0.5624 XXYY=           -145.1798 XXZZ=           -110.8690 YYZZ=            -41.1957
 XXYZ=             -3.3008 YYXZ=              4.9868 ZZXY=              1.4299
 N-N= 2.387547404891D+02 E-N=-1.282109411350D+03  KE= 3.403465790704D+02
  Exact polarizability:   0.000   0.000   0.000   0.000   0.000   0.000
 Approx polarizability:  73.036  -7.205  75.337   3.226   1.770  55.171

 This type of calculation cannot be archived.


 ALL OUR THINKING ABOUT NATURE MUST NECESSARILY MOVE IN CIRCLES OR SPIRALS;
 FOR WE CAN ONLY UNDERSTAND NATURE IF WE THINK ABOUT HER, AND WE CAN ONLY
 THINK BECAUSE OUR BRAIN IS BUILT IN ACCORDANCE WITH NATURE'S LAWS.

                                             -- TIMOTHY FERRIS, "GALAXIES"
 Job cpu time:       0 days  5 hours 41 minutes 24.1 seconds.
 Elapsed time:       0 days  0 hours 21 minutes 53.0 seconds.
 File lengths (MBytes):  RWF=     28 Int=      0 D2E=      0 Chk=      4 Scr=      1
 Normal termination of Gaussian 16 at Wed Dec 23 22:38:57 2020.
