 Entering Gaussian System, Link 0=g16
 Initial command:
 /apps/cent7/gaussian/g16-B.01/g16-haswell/g16/l1.exe "/scratch/halstead/z/zhao922/pyGSM/KHP-network/pp_0/IRC-folder/Gau-19368.inp" -scrdir="/scratch/halstead/z/zhao922/pyGSM/KHP-network/pp_0/IRC-folder/"
 Entering Link 1 = /apps/cent7/gaussian/g16-B.01/g16-haswell/g16/l1.exe PID=     19372.
  
 Copyright (c) 1988-2017, Gaussian, Inc.  All Rights Reserved.
  
 This is part of the Gaussian(R) 16 program.  It is based on
 the Gaussian(R) 09 system (copyright 2009, Gaussian, Inc.),
 the Gaussian(R) 03 system (copyright 2003, Gaussian, Inc.),
 the Gaussian(R) 98 system (copyright 1998, Gaussian, Inc.),
 the Gaussian(R) 94 system (copyright 1995, Gaussian, Inc.),
 the Gaussian 92(TM) system (copyright 1992, Gaussian, Inc.),
 the Gaussian 90(TM) system (copyright 1990, Gaussian, Inc.),
 the Gaussian 88(TM) system (copyright 1988, Gaussian, Inc.),
 the Gaussian 86(TM) system (copyright 1986, Carnegie Mellon
 University), and the Gaussian 82(TM) system (copyright 1983,
 Carnegie Mellon University). Gaussian is a federally registered
 trademark of Gaussian, Inc.
  
 This software contains proprietary and confidential information,
 including trade secrets, belonging to Gaussian, Inc.
  
 This software is provided under written license and may be
 used, copied, transmitted, or stored only in accord with that
 written license.
  
 The following legend is applicable only to US Government
 contracts under FAR:
  
                    RESTRICTED RIGHTS LEGEND
  
 Use, reproduction and disclosure by the US Government is
 subject to restrictions as set forth in subparagraphs (a)
 and (c) of the Commercial Computer Software - Restricted
 Rights clause in FAR 52.227-19.
  
 Gaussian, Inc.
 340 Quinnipiac St., Bldg. 40, Wallingford CT 06492
  
  
 ---------------------------------------------------------------
 Warning -- This program may not be used in any manner that
 competes with the business of Gaussian, Inc. or will provide
 assistance to any competitor of Gaussian, Inc.  The licensee
 of this program is prohibited from giving any competitor of
 Gaussian, Inc. access to this program.  By using this program,
 the user acknowledges that Gaussian, Inc. is engaged in the
 business of creating and licensing software in the field of
 computational chemistry and represents and warrants to the
 licensee that it is not a competitor of Gaussian, Inc. and that
 it will not use this program in any manner prohibited above.
 ---------------------------------------------------------------
  

 Cite this work as:
 Gaussian 16, Revision B.01,
 M. J. Frisch, G. W. Trucks, H. B. Schlegel, G. E. Scuseria, 
 M. A. Robb, J. R. Cheeseman, G. Scalmani, V. Barone, 
 G. A. Petersson, H. Nakatsuji, X. Li, M. Caricato, A. V. Marenich, 
 J. Bloino, B. G. Janesko, R. Gomperts, B. Mennucci, H. P. Hratchian, 
 J. V. Ortiz, A. F. Izmaylov, J. L. Sonnenberg, D. Williams-Young, 
 F. Ding, F. Lipparini, F. Egidi, J. Goings, B. Peng, A. Petrone, 
 T. Henderson, D. Ranasinghe, V. G. Zakrzewski, J. Gao, N. Rega, 
 G. Zheng, W. Liang, M. Hada, M. Ehara, K. Toyota, R. Fukuda, 
 J. Hasegawa, M. Ishida, T. Nakajima, Y. Honda, O. Kitao, H. Nakai, 
 T. Vreven, K. Throssell, J. A. Montgomery, Jr., J. E. Peralta, 
 F. Ogliaro, M. J. Bearpark, J. J. Heyd, E. N. Brothers, K. N. Kudin, 
 V. N. Staroverov, T. A. Keith, R. Kobayashi, J. Normand, 
 K. Raghavachari, A. P. Rendell, J. C. Burant, S. S. Iyengar, 
 J. Tomasi, M. Cossi, J. M. Millam, M. Klene, C. Adamo, R. Cammi, 
 J. W. Ochterski, R. L. Martin, K. Morokuma, O. Farkas, 
 J. B. Foresman, and D. J. Fox, Gaussian, Inc., Wallingford CT, 2016.
 
 ******************************************
 Gaussian 16:  ES64L-G16RevB.01 20-Dec-2017
                21-Jul-2020 
 ******************************************
 %NProcShared=16
 Will use up to   16 processors via shared memory.
 %Mem=60GB
 ----------------------------------------------------------------------
 # B3LYP/6-31+G* IRC=(CALCALL, maxpoints=60, StepSize=10, maxcyc=100, R
 eport=Cartesians)
 ----------------------------------------------------------------------
 1/6=100,10=4,18=10,26=3,38=1,39=10,42=60,44=3,71=1,129=10,172=1/1,23;
 2/12=2,17=6,18=5,29=1,40=1/2;
 3/5=1,6=6,7=11,11=2,25=1,30=1,71=2,74=-5,140=1/1,2,3;
 4//1;
 5/5=2,38=5/2;
 8/6=4,10=90,11=11/1;
 11/6=1,8=1,9=11,15=111,16=1/1,2,10;
 10/6=1,13=1/2;
 6/7=2,8=2,9=2,10=2,18=1,28=1/1;
 7/10=1,25=1/1,2,3,16;
 1/6=100,10=4,18=10,26=3,39=10,42=60,44=3,71=1,129=10/23(2);
 2/29=1/2;
 99/5=20/99;
 2/29=1/2;
 3/5=1,6=6,7=11,11=2,25=1,30=1,71=2,74=-5,140=1/1,2,3;
 4/5=5,16=3,69=1/1;
 5/5=2,38=5/2;
 8/6=4,10=90,11=11/1;
 11/6=1,8=1,9=11,15=111,16=1/1,2,10;
 10/6=1,13=1/2;
 7/10=1,25=1/1,2,3,16;
 1/6=100,10=4,18=10,26=3,39=10,42=60,44=3,71=1,129=10/23(-8);
 2/29=1/2;
 6/7=2,8=2,9=2,10=2,18=1,19=2,28=1/1;
 99/5=20/99;
 ----------
 pp_7_0 IRC
 ----------
 Symbolic Z-matrix:
 Charge =  0 Multiplicity = 1
 C                     0.73866   1.2043   -2.74384 
 C                     0.41618   0.0638   -1.97717 
 C                     0.98061   0.74767  -0.36804 
 O                     1.84734   1.80605  -1.25281 
 O                     1.99405   3.07049  -0.55876 
 O                     1.60097   0.01056   0.37112 
 H                     2.94926   3.06148  -0.3605 
 H                     0.04948   2.04047  -2.82248 
 H                     1.57056   1.21682  -3.43939 
 H                     0.13221   1.37616  -0.0475 
 H                     1.00926  -0.83382  -2.13426 
 H                    -0.63345  -0.12667  -1.75967 
 
 IRC-IRC-IRC-IRC-IRC-IRC-IRC-IRC-IRC-IRC-IRC-IRC-IRC-IRC-IRC-IRC-IRC-IRC
 ------------------------------------------------------------------------
 INPUT DATA FOR L123
 ------------------------------------------------------------------------
 GENERAL PARAMETERS:
 Follow reaction path in both directions.
 Maximum points per path      =  60
 Step size                    =   0.100 bohr
 Integration scheme           = HPC                                 
    Redo corrector integration= Yes                                 
    DWI Weight Power          =  2
    DWI will use Hessian update vectors when possible.
    Max correction cycles     = 100
 Initial Hessian              = CalcFC
 Hessian evaluation           = Analytic at all predictor steps
                              = Update at all corrector steps
 Hessian updating method      = Bofill                              
 ------------------------------------------------------------------------
 IRC-IRC-IRC-IRC-IRC-IRC-IRC-IRC-IRC-IRC-IRC-IRC-IRC-IRC-IRC-IRC-IRC-IRC
                          Input orientation:                          
 ---------------------------------------------------------------------
 Center     Atomic      Atomic             Coordinates (Angstroms)
 Number     Number       Type             X           Y           Z
 ---------------------------------------------------------------------
      1          6           0        0.738657    1.204302   -2.743839
      2          6           0        0.416180    0.063797   -1.977171
      3          6           0        0.980609    0.747669   -0.368035
      4          8           0        1.847336    1.806052   -1.252808
      5          8           0        1.994053    3.070494   -0.558757
      6          8           0        1.600972    0.010562    0.371121
      7          1           0        2.949255    3.061477   -0.360503
      8          1           0        0.049480    2.040473   -2.822477
      9          1           0        1.570555    1.216816   -3.439394
     10          1           0        0.132213    1.376163   -0.047504
     11          1           0        1.009259   -0.833818   -2.134261
     12          1           0       -0.633446   -0.126667   -1.759671
 ---------------------------------------------------------------------
                    Distance matrix (angstroms):
                    1          2          3          4          5
     1  C    0.000000
     2  C    1.411568   0.000000
     3  C    2.431357   1.837275   0.000000
     4  O    1.953061   2.368198   1.629176   0.000000
     5  O    3.135805   3.679920   2.541448   1.449844   0.000000
     6  O    3.445516   2.630787   1.214302   2.433439   3.222168
     7  H    3.743813   4.244546   3.037981   1.893812   0.975601
     8  H    1.086430   2.180885   2.926197   2.398145   3.157014
     9  H    1.084439   2.190920   3.162496   2.281439   3.451600
    10  H    2.769031   2.350863   1.103413   2.139909   2.568771
    11  H    2.144468   1.087259   2.370965   2.906587   4.323851
    12  H    2.150054   1.088714   2.303538   3.185372   4.309035
                    6          7          8          9         10
     6  O    0.000000
     7  H    3.414853   0.000000
     8  H    4.089833   3.938586   0.000000
     9  H    3.996999   3.844887   1.836482   0.000000
    10  H    2.048747   3.297571   2.854580   3.687701   0.000000
    11  H    2.709251   4.699269   3.107469   2.494699   3.163508
    12  H    3.090587   4.995766   2.508474   3.079616   2.403383
                   11         12
    11  H    0.000000
    12  H    1.827255   0.000000
 Symmetry turned off by external request.
 Stoichiometry    C3H6O3
 Framework group  C1[X(C3H6O3)]
 Deg. of freedom    30
 Full point group                 C1      NOp   1
 Rotational constants (GHZ):           4.3514856           3.5073729           2.1119083
 Standard basis: 6-31+G(d) (6D, 7F)
   126 basis functions,   216 primitive gaussians,   126 cartesian basis functions
    24 alpha electrons       24 beta electrons
       nuclear repulsion energy       244.3028656789 Hartrees.
 NAtoms=   12 NActive=   12 NUniq=   12 SFac= 1.00D+00 NAtFMM=   60 NAOKFM=F Big=F
 Integral buffers will be    131072 words long.
 Raffenetti 2 integral format.
 Two-electron integral symmetry is turned off.
 One-electron integrals computed using PRISM.
 NBasis=   126 RedAO= T EigKep=  1.15D-04  NBF=   126
 NBsUse=   126 1.00D-06 EigRej= -1.00D+00 NBFU=   126
 ExpMin= 4.38D-02 ExpMax= 5.48D+03 ExpMxC= 8.25D+02 IAcc=3 IRadAn=         5 AccDes= 0.00D+00
 Harris functional with IExCor=  402 and IRadAn=       5 diagonalized for initial guess.
 HarFok:  IExCor=  402 AccDes= 0.00D+00 IRadAn=         5 IDoV= 1 UseB2=F ITyADJ=14
 ICtDFT=  3500011 ScaDFX=  1.000000  1.000000  1.000000  1.000000
 FoFCou: FMM=F IPFlag=           0 FMFlag=      100000 FMFlg1=           0
         NFxFlg=           0 DoJE=T BraDBF=F KetDBF=T FulRan=T
         wScrn=  0.000000 ICntrl=       500 IOpCl=  0 I1Cent=   200000004 NGrid=           0
         NMat0=    1 NMatS0=      1 NMatT0=    0 NMatD0=    1 NMtDS0=    0 NMtDT0=    0
 Symmetry not used in FoFCou.
 Keep R1 ints in memory in canonical form, NReq=47237219.
 Requested convergence on RMS density matrix=1.00D-08 within 128 cycles.
 Requested convergence on MAX density matrix=1.00D-06.
 Requested convergence on             energy=1.00D-06.
 No special actions if energy rises.
 EnCoef did     2 forward-backward iterations
 SCF Done:  E(RB3LYP) =  -343.409967237     A.U. after   14 cycles
            NFock= 14  Conv=0.33D-08     -V/T= 2.0092
 DoSCS=F DFT=T ScalE2(SS,OS)=  1.000000  1.000000
 Range of M.O.s used for correlation:     1   126
 NBasis=   126 NAE=    24 NBE=    24 NFC=     0 NFV=     0
 NROrb=    126 NOA=    24 NOB=    24 NVA=   102 NVB=   102

 **** Warning!!: The largest alpha MO coefficient is  0.31760582D+02

 Symmetrizing basis deriv contribution to polar:
 IMax=3 JMax=2 DiffMx= 0.00D+00
 G2DrvN: will do    13 centers at a time, making    1 passes.
 Calling FoFCou, ICntrl=  3107 FMM=F I1Cent=   0 AccDes= 0.00D+00.
 End of G2Drv F.D. properties file   721 does not exist.
 End of G2Drv F.D. properties file   722 does not exist.
 End of G2Drv F.D. properties file   788 does not exist.
          IDoAtm=111111111111
          Differentiating once with respect to nuclear coordinates.
 Keep R1 ints in memory in canonical form, NReq=47193234.
          There are    39 degrees of freedom in the 1st order CPHF.  IDoFFX=6 NUNeed=     0.
     33 vectors produced by pass  0 Test12= 6.28D-15 2.56D-09 XBig12= 1.83D-01 1.28D-01.
 AX will form    33 AO Fock derivatives at one time.
     33 vectors produced by pass  1 Test12= 6.28D-15 2.56D-09 XBig12= 1.66D-02 2.21D-02.
     33 vectors produced by pass  2 Test12= 6.28D-15 2.56D-09 XBig12= 2.24D-04 2.24D-03.
     33 vectors produced by pass  3 Test12= 6.28D-15 2.56D-09 XBig12= 8.70D-07 1.47D-04.
     33 vectors produced by pass  4 Test12= 6.28D-15 2.56D-09 XBig12= 1.13D-09 5.29D-06.
     30 vectors produced by pass  5 Test12= 6.28D-15 2.56D-09 XBig12= 1.24D-12 1.69D-07.
      6 vectors produced by pass  6 Test12= 6.28D-15 2.56D-09 XBig12= 1.22D-15 5.02D-09.
 InvSVY:  IOpt=1 It=  1 EMax= 1.78D-15
 Solved reduced A of dimension   201 with    33 vectors.
 End of Minotr F.D. properties file   721 does not exist.
 End of Minotr F.D. properties file   722 does not exist.
 End of Minotr F.D. properties file   788 does not exist.

 **********************************************************************

            Population analysis using the SCF Density.

 **********************************************************************

 Alpha  occ. eigenvalues --  -19.23736 -19.22876 -19.13456 -10.30998 -10.27454
 Alpha  occ. eigenvalues --  -10.21400  -1.12878  -1.03671  -0.91209  -0.79775
 Alpha  occ. eigenvalues --   -0.65327  -0.59660  -0.55349  -0.49919  -0.48264
 Alpha  occ. eigenvalues --   -0.46903  -0.45087  -0.43449  -0.40165  -0.38790
 Alpha  occ. eigenvalues --   -0.33797  -0.31971  -0.27822  -0.24365
 Alpha virt. eigenvalues --   -0.08618  -0.00910   0.00516   0.02126   0.02919
 Alpha virt. eigenvalues --    0.04214   0.05259   0.06457   0.07661   0.07773
 Alpha virt. eigenvalues --    0.08141   0.09875   0.10179   0.13073   0.14369
 Alpha virt. eigenvalues --    0.14755   0.16223   0.16887   0.17847   0.21051
 Alpha virt. eigenvalues --    0.22752   0.23879   0.25232   0.26509   0.27359
 Alpha virt. eigenvalues --    0.27720   0.28751   0.29756   0.30897   0.32088
 Alpha virt. eigenvalues --    0.32459   0.33938   0.35741   0.38382   0.38646
 Alpha virt. eigenvalues --    0.46745   0.61089   0.64286   0.65022   0.68252
 Alpha virt. eigenvalues --    0.70418   0.76596   0.79382   0.82646   0.90048
 Alpha virt. eigenvalues --    0.90955   0.97516   0.99642   1.01695   1.03915
 Alpha virt. eigenvalues --    1.07099   1.07934   1.09498   1.15178   1.19143
 Alpha virt. eigenvalues --    1.21145   1.22017   1.26400   1.30950   1.31848
 Alpha virt. eigenvalues --    1.34219   1.35925   1.42331   1.45447   1.50630
 Alpha virt. eigenvalues --    1.53569   1.58860   1.61632   1.66507   1.69872
 Alpha virt. eigenvalues --    1.74404   1.75590   1.77968   1.78955   1.85995
 Alpha virt. eigenvalues --    1.90062   1.93106   1.97294   2.03623   2.05866
 Alpha virt. eigenvalues --    2.07064   2.09841   2.16950   2.28782   2.35112
 Alpha virt. eigenvalues --    2.39489   2.41585   2.46294   2.51487   2.58170
 Alpha virt. eigenvalues --    2.62615   2.67129   2.75842   2.89211   3.10096
 Alpha virt. eigenvalues --    3.16713   3.89387   4.20368   4.26260   4.31316
 Alpha virt. eigenvalues --    4.32873   4.57997
          Condensed to atoms (all electrons):
               1          2          3          4          5          6
     1  C    5.570759   0.011936  -0.126086   0.113961   0.010668   0.007720
     2  C    0.011936   6.135630   0.074983  -0.286166   0.015865  -0.084884
     3  C   -0.126086   0.074983   5.047010   0.008709   0.008878   0.422133
     4  O    0.113961  -0.286166   0.008709   8.404212  -0.000217  -0.042220
     5  O    0.010668   0.015865   0.008878  -0.000217   8.330868   0.007613
     6  O    0.007720  -0.084884   0.422133  -0.042220   0.007613   8.178434
     7  H    0.002848  -0.006120   0.006345  -0.006408   0.166638  -0.002083
     8  H    0.366548  -0.022499  -0.002496  -0.028729   0.005371  -0.000563
     9  H    0.374473  -0.024576   0.003603  -0.028643   0.002337  -0.000513
    10  H    0.000534  -0.092000   0.420933  -0.059939   0.003238  -0.065240
    11  H   -0.038343   0.387776  -0.018535   0.002404  -0.000263  -0.003411
    12  H   -0.051688   0.400177  -0.026296   0.007995  -0.000540  -0.001053
               7          8          9         10         11         12
     1  C    0.002848   0.366548   0.374473   0.000534  -0.038343  -0.051688
     2  C   -0.006120  -0.022499  -0.024576  -0.092000   0.387776   0.400177
     3  C    0.006345  -0.002496   0.003603   0.420933  -0.018535  -0.026296
     4  O   -0.006408  -0.028729  -0.028643  -0.059939   0.002404   0.007995
     5  O    0.166638   0.005371   0.002337   0.003238  -0.000263  -0.000540
     6  O   -0.002083  -0.000563  -0.000513  -0.065240  -0.003411  -0.001053
     7  H    0.359074  -0.000121  -0.000060   0.000024   0.000010   0.000003
     8  H   -0.000121   0.475865  -0.027109   0.000295   0.003104  -0.005513
     9  H   -0.000060  -0.027109   0.463094  -0.000438  -0.005840   0.002829
    10  H    0.000024   0.000295  -0.000438   0.607251   0.002078  -0.004733
    11  H    0.000010   0.003104  -0.005840   0.002078   0.453373  -0.024832
    12  H    0.000003  -0.005513   0.002829  -0.004733  -0.024832   0.466685
 Mulliken charges:
               1
     1  C   -0.243330
     2  C   -0.510121
     3  C    0.180820
     4  O   -0.084960
     5  O   -0.550458
     6  O   -0.415934
     7  H    0.479848
     8  H    0.235848
     9  H    0.240844
    10  H    0.187997
    11  H    0.242479
    12  H    0.236967
 Sum of Mulliken charges =  -0.00000
 Mulliken charges with hydrogens summed into heavy atoms:
               1
     1  C    0.233362
     2  C   -0.030675
     3  C    0.368816
     4  O   -0.084960
     5  O   -0.070610
     6  O   -0.415934
 APT charges:
               1
     1  C   -1.090125
     2  C   -0.725903
     3  C    0.062556
     4  O   -0.027873
     5  O   -0.984369
     6  O   -0.379625
     7  H    0.841404
     8  H    0.498840
     9  H    0.784987
    10  H    0.291573
    11  H    0.458615
    12  H    0.269920
 Sum of APT charges =  -0.00000
 APT charges with hydrogens summed into heavy atoms:
               1
     1  C    0.193702
     2  C    0.002632
     3  C    0.354129
     4  O   -0.027873
     5  O   -0.142965
     6  O   -0.379625
 Electronic spatial extent (au):  <R**2>=           1311.6312
 Charge=              0.0000 electrons
 Dipole moment (field-independent basis, Debye):
    X=             -0.9785    Y=              1.2930    Z=             -3.3709  Tot=              3.7406
 Quadrupole moment (field-independent basis, Debye-Ang):
   XX=            -33.3214   YY=            -35.9923   ZZ=            -29.6059
   XY=              4.3769   XZ=             -2.8643   YZ=             -1.4715
 Traceless Quadrupole moment (field-independent basis, Debye-Ang):
   XX=             -0.3482   YY=             -3.0191   ZZ=              3.3673
   XY=              4.3769   XZ=             -2.8643   YZ=             -1.4715
 Octapole moment (field-independent basis, Debye-Ang**2):
  XXX=           -112.5153  YYY=           -130.7061  ZZZ=            101.2860  XYY=            -32.0608
  XXY=            -17.1129  XXZ=             36.8843  XZZ=            -37.3929  YZZ=            -31.8842
  YYZ=             41.3178  XYZ=              2.3121
 Hexadecapole moment (field-independent basis, Debye-Ang**3):
 XXXX=           -373.3306 YYYY=           -616.5587 ZZZZ=           -510.4612 XXXY=           -100.2992
 XXXZ=            102.8578 YYYX=           -165.6689 YYYZ=            153.7851 ZZZX=             75.8142
 ZZZY=            101.0826 XXYY=            -97.5987 XXZZ=           -164.0881 YYZZ=           -181.5347
 XXYZ=             48.2963 YYXZ=             45.6028 ZZXY=            -65.8469
 N-N= 2.443028656789D+02 E-N=-1.293354874116D+03  KE= 3.402960414802D+02
  Exact polarizability:   0.000   0.000   0.000   0.000   0.000   0.000
 Approx polarizability:  72.190   8.245  98.503  19.233 -14.163 123.823
 Calling FoFJK, ICntrl=    100127 FMM=F ISym2X=0 I1Cent= 0 IOpClX= 0 NMat=1 NMatS=1 NMatT=0.
 -------------------------------------------------------------------
 Center     Atomic                   Forces (Hartrees/Bohr)
 Number     Number              X              Y              Z
 -------------------------------------------------------------------
      1        6          -0.000003567    0.000000057    0.000003562
      2        6           0.000003708    0.000002669   -0.000000386
      3        6           0.000003755   -0.000003211    0.000000707
      4        8          -0.000002696   -0.000006788   -0.000002600
      5        8          -0.000000094   -0.000001124   -0.000000057
      6        8          -0.000000929    0.000002245    0.000000736
      7        1           0.000000044    0.000004901   -0.000001421
      8        1           0.000001365   -0.000000430   -0.000000577
      9        1           0.000000304    0.000000778   -0.000001166
     10        1          -0.000000830    0.000000090    0.000003293
     11        1           0.000000366    0.000000829    0.000000009
     12        1          -0.000001427   -0.000000016   -0.000002099
 -------------------------------------------------------------------
 Cartesian Forces:  Max     0.000006788 RMS     0.000002288
 IRC-IRC-IRC-IRC-IRC-IRC-IRC-IRC-IRC-IRC-IRC-IRC-IRC-IRC-IRC-IRC-IRC-IRC
          ******** Start new reaction path calculation ********
 Supplied step size of   0.1000 bohr.
    Integration on MW PES will use step size of   0.2997 sqrt(amu)*bohr.
 Point Number:   0          Path Number:   1
 Calculating another point on the path.
 IRC-IRC-IRC-IRC-IRC-IRC-IRC-IRC-IRC-IRC-IRC-IRC-IRC-IRC-IRC-IRC-IRC-IRC
                          Input orientation:                          
 ---------------------------------------------------------------------
 Center     Atomic      Atomic             Coordinates (Angstroms)
 Number     Number       Type             X           Y           Z
 ---------------------------------------------------------------------
      1          6           0       -0.557622    0.007079   -1.678078
      2          6           0       -0.884467   -1.141093   -0.904624
      3          6           0       -0.342117   -0.485206    0.677200
      4          8           0        0.537798    0.593580   -0.210732
      5          8           0        0.682533    1.858070    0.484860
      6          8           0        0.292391   -1.204405    1.425091
      7          1           0        1.640122    1.851923    0.672150
      8          1           0       -1.254529    0.836069   -1.765997
      9          1           0        0.259470    0.007775   -2.391723
     10          1           0       -1.170376    0.166948    1.009059
     11          1           0       -0.297489   -2.040014   -1.081383
     12          1           0       -1.940959   -1.337616   -0.721447
 ---------------------------------------------------------------------
                    Distance matrix (angstroms):
                    1          2          3          4          5
     1  C    0.000000
     2  C    1.422449   0.000000
     3  C    2.415806   1.796246   0.000000
     4  O    1.922767   2.348067   1.651197   0.000000
     5  O    3.105229   3.658023   2.564730   1.450424   0.000000
     6  O    3.438004   2.610857   1.216219   2.443132   3.227227
     7  H    3.709056   4.221127   3.064550   1.891567   0.975752
     8  H    1.086570   2.188168   2.923606   2.385390   3.140549
     9  H    1.084864   2.199990   3.165948   2.275380   3.446346
    10  H    2.760748   2.335572   1.105192   2.141907   2.562801
    11  H    2.148093   1.088046   2.347772   2.896819   4.313771
    12  H    2.153362   1.090114   2.288910   3.183486   4.307004
                    6          7          8          9         10
     6  O    0.000000
     7  H    3.424097   0.000000
     8  H    4.091398   3.918612   0.000000
     9  H    4.004814   3.833327   1.835701   0.000000
    10  H    2.047774   3.294169   2.855825   3.692576   0.000000
    11  H    2.707142   4.687898   3.107487   2.494120   3.162683
    12  H    3.100520   4.993937   2.507424   3.072749   2.419124
                   11         12
    11  H    0.000000
    12  H    1.823159   0.000000
 Symmetry turned off by external request.
 Stoichiometry    C3H6O3
 Framework group  C1[X(C3H6O3)]
 Deg. of freedom    30
 Full point group                 C1      NOp   1
 Rotational constants (GHZ):           4.3499695           3.5394213           2.1238891
 Standard basis: 6-31+G(d) (6D, 7F)
   126 basis functions,   216 primitive gaussians,   126 cartesian basis functions
    24 alpha electrons       24 beta electrons
       nuclear repulsion energy       244.6205223893 Hartrees.
 NAtoms=   12 NActive=   12 NUniq=   12 SFac= 1.00D+00 NAtFMM=   60 NAOKFM=F Big=F
 Integral buffers will be    131072 words long.
 Raffenetti 2 integral format.
 Two-electron integral symmetry is turned off.
 One-electron integrals computed using PRISM.
 NBasis=   126 RedAO= T EigKep=  1.17D-04  NBF=   126
 NBsUse=   126 1.00D-06 EigRej= -1.00D+00 NBFU=   126
 Initial guess from the checkpoint file:  "/scratch/halstead/z/zhao922/pyGSM/KHP-network/pp_0/IRC-folder/Gau-19372.chk"
 B after Tr=    -2.472073   -2.290423    1.988474
         Rot=    1.000000   -0.000027   -0.000068    0.000026 Ang=  -0.01 deg.
 ExpMin= 4.38D-02 ExpMax= 5.48D+03 ExpMxC= 8.25D+02 IAcc=3 IRadAn=         5 AccDes= 0.00D+00
 Harris functional with IExCor=  402 and IRadAn=       5 diagonalized for initial guess.
 HarFok:  IExCor=  402 AccDes= 0.00D+00 IRadAn=         5 IDoV= 1 UseB2=F ITyADJ=14
 ICtDFT=  3500011 ScaDFX=  1.000000  1.000000  1.000000  1.000000
 FoFCou: FMM=F IPFlag=           0 FMFlag=      100000 FMFlg1=           0
         NFxFlg=           0 DoJE=T BraDBF=F KetDBF=T FulRan=T
         wScrn=  0.000000 ICntrl=       500 IOpCl=  0 I1Cent=   200000004 NGrid=           0
         NMat0=    1 NMatS0=      1 NMatT0=    0 NMatD0=    1 NMtDS0=    0 NMtDT0=    0
 Symmetry not used in FoFCou.
 Keep R1 ints in memory in canonical form, NReq=47237219.
 Requested convergence on RMS density matrix=1.00D-08 within 128 cycles.
 Requested convergence on MAX density matrix=1.00D-06.
 Requested convergence on             energy=1.00D-06.
 No special actions if energy rises.
 SCF Done:  E(RB3LYP) =  -343.410379410     A.U. after   11 cycles
            NFock= 11  Conv=0.99D-08     -V/T= 2.0092
 DoSCS=F DFT=T ScalE2(SS,OS)=  1.000000  1.000000
 Range of M.O.s used for correlation:     1   126
 NBasis=   126 NAE=    24 NBE=    24 NFC=     0 NFV=     0
 NROrb=    126 NOA=    24 NOB=    24 NVA=   102 NVB=   102

 **** Warning!!: The largest alpha MO coefficient is  0.32568071D+02

 Symmetrizing basis deriv contribution to polar:
 IMax=3 JMax=2 DiffMx= 0.00D+00
 G2DrvN: will do    13 centers at a time, making    1 passes.
 Calling FoFCou, ICntrl=  3107 FMM=F I1Cent=   0 AccDes= 0.00D+00.
 End of G2Drv F.D. properties file   721 does not exist.
 End of G2Drv F.D. properties file   722 does not exist.
 End of G2Drv F.D. properties file   788 does not exist.
          IDoAtm=111111111111
          Differentiating once with respect to nuclear coordinates.
 Keep R1 ints in memory in canonical form, NReq=47193234.
          There are    39 degrees of freedom in the 1st order CPHF.  IDoFFX=6 NUNeed=     0.
     33 vectors produced by pass  0 Test12= 6.28D-15 2.56D-09 XBig12= 1.79D-01 1.22D-01.
 AX will form    33 AO Fock derivatives at one time.
     33 vectors produced by pass  1 Test12= 6.28D-15 2.56D-09 XBig12= 1.41D-02 1.95D-02.
     33 vectors produced by pass  2 Test12= 6.28D-15 2.56D-09 XBig12= 1.90D-04 2.14D-03.
     33 vectors produced by pass  3 Test12= 6.28D-15 2.56D-09 XBig12= 7.52D-07 1.31D-04.
     33 vectors produced by pass  4 Test12= 6.28D-15 2.56D-09 XBig12= 1.15D-09 6.07D-06.
     30 vectors produced by pass  5 Test12= 6.28D-15 2.56D-09 XBig12= 1.32D-12 1.75D-07.
      6 vectors produced by pass  6 Test12= 6.28D-15 2.56D-09 XBig12= 1.29D-15 5.21D-09.
 InvSVY:  IOpt=1 It=  1 EMax= 1.67D-15
 Solved reduced A of dimension   201 with    33 vectors.
 End of Minotr F.D. properties file   721 does not exist.
 End of Minotr F.D. properties file   722 does not exist.
 End of Minotr F.D. properties file   788 does not exist.
 Calling FoFJK, ICntrl=    100127 FMM=F ISym2X=0 I1Cent= 0 IOpClX= 0 NMat=1 NMatS=1 NMatT=0.
 -------------------------------------------------------------------
 Center     Atomic                   Forces (Hartrees/Bohr)
 Number     Number              X              Y              Z
 -------------------------------------------------------------------
      1        6           0.002843351    0.003553251    0.002731358
      2        6           0.001112937    0.001014314    0.004092421
      3        6          -0.003010884   -0.004186597   -0.000722972
      4        8          -0.000141348   -0.000108061   -0.003104975
      5        8          -0.000944025    0.000051386   -0.002484138
      6        8          -0.000282422   -0.000612731    0.000072571
      7        1          -0.000073694    0.000021832   -0.000372032
      8        1           0.000081376    0.000083095    0.000076022
      9        1          -0.000224557    0.000022383    0.000030299
     10        1           0.000276505   -0.000143549   -0.000056217
     11        1           0.000005731    0.000209550    0.000046455
     12        1           0.000357029    0.000095126   -0.000308791
 -------------------------------------------------------------------
 Cartesian Forces:  Max     0.004186597 RMS     0.001599419
 IRC-IRC-IRC-IRC-IRC-IRC-IRC-IRC-IRC-IRC-IRC-IRC-IRC-IRC-IRC-IRC-IRC-IRC
 Pt  1 Step number   1 out of a maximum of 100
 Modified Bulirsch-Stoer Extrapolation Cycles:
    EPS =    0.000010000000000
      PEZero:  N= 2 I= 1 D=  7.81D-04 Err=  1.04D-03
      PEZero:  N= 3 I= 2 D=  7.81D-04 Err=  6.90D-04
      PEZero:  N= 3 I= 1 D=  1.56D-03 Err=  1.51D-07
 Maximum DWI energy   std dev =  0.000000785 at pt     1
 Maximum DWI gradient std dev =  0.048321716 at pt    21
 CORRECTOR INTEGRATION CONVERGENCE:
   Recorrection delta-x convergence threshold:    0.010000
   Delta-x Convergence Met
 Point Number:   1          Path Number:   1
   CHANGE IN THE REACTION COORDINATE =    0.29967
   NET REACTION COORDINATE UP TO THIS POINT =    0.29967
  # OF POINTS ALONG THE PATH =   1
  # OF STEPS =   1

 Calculating another point on the path.
 IRC-IRC-IRC-IRC-IRC-IRC-IRC-IRC-IRC-IRC-IRC-IRC-IRC-IRC-IRC-IRC-IRC-IRC
                          Input orientation:                          
 ---------------------------------------------------------------------
 Center     Atomic      Atomic             Coordinates (Angstroms)
 Number     Number       Type             X           Y           Z
 ---------------------------------------------------------------------
      1          6           0       -0.544745    0.023145   -1.663593
      2          6           0       -0.877647   -1.134707   -0.885951
      3          6           0       -0.356422   -0.505430    0.672146
      4          8           0        0.537233    0.593130   -0.221879
      5          8           0        0.678895    1.858308    0.475527
      6          8           0        0.291979   -1.207377    1.426381
      7          1           0        1.638698    1.854852    0.651727
      8          1           0       -1.250212    0.843992   -1.760901
      9          1           0        0.255920    0.011206   -2.395862
     10          1           0       -1.164496    0.169107    1.012759
     11          1           0       -0.295336   -2.033661   -1.080831
     12          1           0       -1.939309   -1.336397   -0.736321
 ---------------------------------------------------------------------
                    Distance matrix (angstroms):
                    1          2          3          4          5
     1  C    0.000000
     2  C    1.433936   0.000000
     3  C    2.402193   1.759355   0.000000
     4  O    1.890529   2.329871   1.674734   0.000000
     5  O    3.072613   3.637936   2.588010   1.451591   0.000000
     6  O    3.429611   2.592332   1.217385   2.453311   3.232994
     7  H    3.671958   4.199274   3.090607   1.889009   0.975848
     8  H    1.086711   2.195357   2.922245   2.372021   3.122803
     9  H    1.085092   2.208602   3.170891   2.268033   3.440286
    10  H    2.751046   2.321058   1.106345   2.144763   2.557363
    11  H    2.152271   1.088661   2.326402   2.886347   4.303347
    12  H    2.157081   1.090960   2.275921   3.181350   4.304614
                    6          7          8          9         10
     6  O    0.000000
     7  H    3.433800   0.000000
     8  H    4.092095   3.897231   0.000000
     9  H    4.011956   3.820851   1.834432   0.000000
    10  H    2.046243   3.290893   2.855873   3.696108   0.000000
    11  H    2.704403   4.675764   3.107277   2.492924   3.160814
    12  H    3.110077   4.991280   2.505736   3.064170   2.434370
                   11         12
    11  H    0.000000
    12  H    1.818657   0.000000
 Symmetry turned off by external request.
 Stoichiometry    C3H6O3
 Framework group  C1[X(C3H6O3)]
 Deg. of freedom    30
 Full point group                 C1      NOp   1
 Rotational constants (GHZ):           4.3537952           3.5655934           2.1352316
 Standard basis: 6-31+G(d) (6D, 7F)
   126 basis functions,   216 primitive gaussians,   126 cartesian basis functions
    24 alpha electrons       24 beta electrons
       nuclear repulsion energy       244.9282998163 Hartrees.
 NAtoms=   12 NActive=   12 NUniq=   12 SFac= 1.00D+00 NAtFMM=   60 NAOKFM=F Big=F
 Integral buffers will be    131072 words long.
 Raffenetti 2 integral format.
 Two-electron integral symmetry is turned off.
 One-electron integrals computed using PRISM.
 NBasis=   126 RedAO= T EigKep=  1.19D-04  NBF=   126
 NBsUse=   126 1.00D-06 EigRej= -1.00D+00 NBFU=   126
 Initial guess from the checkpoint file:  "/scratch/halstead/z/zhao922/pyGSM/KHP-network/pp_0/IRC-folder/Gau-19372.chk"
 B after Tr=     0.000188    0.000462   -0.000597
         Rot=    1.000000   -0.000035   -0.000074    0.000008 Ang=  -0.01 deg.
 ExpMin= 4.38D-02 ExpMax= 5.48D+03 ExpMxC= 8.25D+02 IAcc=3 IRadAn=         5 AccDes= 0.00D+00
 Harris functional with IExCor=  402 and IRadAn=       5 diagonalized for initial guess.
 HarFok:  IExCor=  402 AccDes= 0.00D+00 IRadAn=         5 IDoV= 1 UseB2=F ITyADJ=14
 ICtDFT=  3500011 ScaDFX=  1.000000  1.000000  1.000000  1.000000
 FoFCou: FMM=F IPFlag=           0 FMFlag=      100000 FMFlg1=           0
         NFxFlg=           0 DoJE=T BraDBF=F KetDBF=T FulRan=T
         wScrn=  0.000000 ICntrl=       500 IOpCl=  0 I1Cent=   200000004 NGrid=           0
         NMat0=    1 NMatS0=      1 NMatT0=    0 NMatD0=    1 NMtDS0=    0 NMtDT0=    0
 Symmetry not used in FoFCou.
 Keep R1 ints in memory in canonical form, NReq=47237219.
 Requested convergence on RMS density matrix=1.00D-08 within 128 cycles.
 Requested convergence on MAX density matrix=1.00D-06.
 Requested convergence on             energy=1.00D-06.
 No special actions if energy rises.
 SCF Done:  E(RB3LYP) =  -343.411600164     A.U. after   12 cycles
            NFock= 12  Conv=0.41D-08     -V/T= 2.0093
 DoSCS=F DFT=T ScalE2(SS,OS)=  1.000000  1.000000
 Range of M.O.s used for correlation:     1   126
 NBasis=   126 NAE=    24 NBE=    24 NFC=     0 NFV=     0
 NROrb=    126 NOA=    24 NOB=    24 NVA=   102 NVB=   102

 **** Warning!!: The largest alpha MO coefficient is  0.32895406D+02

 Symmetrizing basis deriv contribution to polar:
 IMax=3 JMax=2 DiffMx= 0.00D+00
 G2DrvN: will do    13 centers at a time, making    1 passes.
 Calling FoFCou, ICntrl=  3107 FMM=F I1Cent=   0 AccDes= 0.00D+00.
 End of G2Drv F.D. properties file   721 does not exist.
 End of G2Drv F.D. properties file   722 does not exist.
 End of G2Drv F.D. properties file   788 does not exist.
          IDoAtm=111111111111
          Differentiating once with respect to nuclear coordinates.
 Keep R1 ints in memory in canonical form, NReq=47193234.
          There are    39 degrees of freedom in the 1st order CPHF.  IDoFFX=6 NUNeed=     0.
     33 vectors produced by pass  0 Test12= 6.28D-15 2.56D-09 XBig12= 1.73D-01 1.17D-01.
 AX will form    33 AO Fock derivatives at one time.
     33 vectors produced by pass  1 Test12= 6.28D-15 2.56D-09 XBig12= 1.19D-02 1.92D-02.
     33 vectors produced by pass  2 Test12= 6.28D-15 2.56D-09 XBig12= 1.62D-04 2.03D-03.
     33 vectors produced by pass  3 Test12= 6.28D-15 2.56D-09 XBig12= 7.35D-07 1.31D-04.
     33 vectors produced by pass  4 Test12= 6.28D-15 2.56D-09 XBig12= 1.34D-09 7.14D-06.
     30 vectors produced by pass  5 Test12= 6.28D-15 2.56D-09 XBig12= 1.92D-12 2.31D-07.
      4 vectors produced by pass  6 Test12= 6.28D-15 2.56D-09 XBig12= 1.62D-15 6.56D-09.
 InvSVY:  IOpt=1 It=  1 EMax= 2.89D-15
 Solved reduced A of dimension   199 with    33 vectors.
 End of Minotr F.D. properties file   721 does not exist.
 End of Minotr F.D. properties file   722 does not exist.
 End of Minotr F.D. properties file   788 does not exist.
 Calling FoFJK, ICntrl=    100127 FMM=F ISym2X=0 I1Cent= 0 IOpClX= 0 NMat=1 NMatS=1 NMatT=0.
 -------------------------------------------------------------------
 Center     Atomic                   Forces (Hartrees/Bohr)
 Number     Number              X              Y              Z
 -------------------------------------------------------------------
      1        6           0.005519686    0.006827920    0.005862616
      2        6           0.002324910    0.002187685    0.007435222
      3        6          -0.005786486   -0.008097861   -0.001411424
      4        8          -0.000158881   -0.000269475   -0.006235110
      5        8          -0.002009719    0.000182410   -0.005112560
      6        8          -0.000420813   -0.001523671    0.000444508
      7        1          -0.000111747    0.000074981   -0.000710122
      8        1           0.000166278    0.000221375    0.000195627
      9        1          -0.000295171    0.000097530    0.000004641
     10        1           0.000342405   -0.000117789    0.000012245
     11        1           0.000058045    0.000300810    0.000057101
     12        1           0.000371493    0.000116085   -0.000542744
 -------------------------------------------------------------------
 Cartesian Forces:  Max     0.008097861 RMS     0.003123708
 IRC-IRC-IRC-IRC-IRC-IRC-IRC-IRC-IRC-IRC-IRC-IRC-IRC-IRC-IRC-IRC-IRC-IRC
 Pt  2 Step number   1 out of a maximum of 100
 Modified Bulirsch-Stoer Extrapolation Cycles:
    EPS =    0.000010000000000
      PEZero:  N= 2 I= 1 D=  1.56D-03 Err=  4.85D-05
      PEZero:  N= 3 I= 2 D=  1.56D-03 Err=  3.23D-05
      PEZero:  N= 3 I= 1 D=  3.12D-03 Err=  9.83D-08
 Maximum DWI energy   std dev =  0.000002042 at pt    17
 Maximum DWI gradient std dev =  0.027919362 at pt    23
 CORRECTOR INTEGRATION CONVERGENCE:
   Recorrection delta-x convergence threshold:    0.010000
   Delta-x Convergence Met
 Point Number:   2          Path Number:   1
   CHANGE IN THE REACTION COORDINATE =    0.29958
   NET REACTION COORDINATE UP TO THIS POINT =    0.59925
  # OF POINTS ALONG THE PATH =   2
  # OF STEPS =   1

 Calculating another point on the path.
 IRC-IRC-IRC-IRC-IRC-IRC-IRC-IRC-IRC-IRC-IRC-IRC-IRC-IRC-IRC-IRC-IRC-IRC
                          Input orientation:                          
 ---------------------------------------------------------------------
 Center     Atomic      Atomic             Coordinates (Angstroms)
 Number     Number       Type             X           Y           Z
 ---------------------------------------------------------------------
      1          6           0       -0.531394    0.039724   -1.648266
      2          6           0       -0.871421   -1.128943   -0.868376
      3          6           0       -0.370551   -0.525313    0.668450
      4          8           0        0.537048    0.592552   -0.233562
      5          8           0        0.674982    1.858734    0.465863
      6          8           0        0.291427   -1.210556    1.427591
      7          1           0        1.636777    1.857677    0.631404
      8          1           0       -1.245733    0.851990   -1.754726
      9          1           0        0.251970    0.014948   -2.399113
     10          1           0       -1.158884    0.170358    1.016180
     11          1           0       -0.292784   -2.027218   -1.080087
     12          1           0       -1.937155   -1.335091   -0.751224
 ---------------------------------------------------------------------
                    Distance matrix (angstroms):
                    1          2          3          4          5
     1  C    0.000000
     2  C    1.445555   0.000000
     3  C    2.390044   1.725420   0.000000
     4  O    1.857034   2.313075   1.699112   0.000000
     5  O    3.038698   3.619084   2.611103   1.453079   0.000000
     6  O    3.420692   2.574945   1.218223   2.463931   3.239225
     7  H    3.633568   4.178552   3.115988   1.886296   0.975938
     8  H    1.086917   2.202231   2.921419   2.357871   3.103819
     9  H    1.085377   2.216675   3.176375   2.259315   3.433158
    10  H    2.740453   2.307026   1.107403   2.148555   2.552749
    11  H    2.156852   1.089284   2.306328   2.875486   4.292686
    12  H    2.161242   1.091793   2.263949   3.178909   4.301753
                    6          7          8          9         10
     6  O    0.000000
     7  H    3.443535   0.000000
     8  H    4.091955   3.874776   0.000000
     9  H    4.018343   3.807542   1.832754   0.000000
    10  H    2.044403   3.287981   2.854835   3.698498   0.000000
    11  H    2.701239   4.663134   3.106942   2.491391   3.158133
    12  H    3.119186   4.987827   2.503678   3.054572   2.448633
                   11         12
    11  H    0.000000
    12  H    1.814152   0.000000
 Symmetry turned off by external request.
 Stoichiometry    C3H6O3
 Framework group  C1[X(C3H6O3)]
 Deg. of freedom    30
 Full point group                 C1      NOp   1
 Rotational constants (GHZ):           4.3645680           3.5852757           2.1460700
 Standard basis: 6-31+G(d) (6D, 7F)
   126 basis functions,   216 primitive gaussians,   126 cartesian basis functions
    24 alpha electrons       24 beta electrons
       nuclear repulsion energy       245.2373864602 Hartrees.
 NAtoms=   12 NActive=   12 NUniq=   12 SFac= 1.00D+00 NAtFMM=   60 NAOKFM=F Big=F
 Integral buffers will be    131072 words long.
 Raffenetti 2 integral format.
 Two-electron integral symmetry is turned off.
 One-electron integrals computed using PRISM.
 NBasis=   126 RedAO= T EigKep=  1.20D-04  NBF=   126
 NBsUse=   126 1.00D-06 EigRej= -1.00D+00 NBFU=   126
 Initial guess from the checkpoint file:  "/scratch/halstead/z/zhao922/pyGSM/KHP-network/pp_0/IRC-folder/Gau-19372.chk"
 B after Tr=     0.000187    0.000453   -0.000559
         Rot=    1.000000   -0.000042   -0.000075    0.000000 Ang=  -0.01 deg.
 ExpMin= 4.38D-02 ExpMax= 5.48D+03 ExpMxC= 8.25D+02 IAcc=3 IRadAn=         5 AccDes= 0.00D+00
 Harris functional with IExCor=  402 and IRadAn=       5 diagonalized for initial guess.
 HarFok:  IExCor=  402 AccDes= 0.00D+00 IRadAn=         5 IDoV= 1 UseB2=F ITyADJ=14
 ICtDFT=  3500011 ScaDFX=  1.000000  1.000000  1.000000  1.000000
 FoFCou: FMM=F IPFlag=           0 FMFlag=      100000 FMFlg1=           0
         NFxFlg=           0 DoJE=T BraDBF=F KetDBF=T FulRan=T
         wScrn=  0.000000 ICntrl=       500 IOpCl=  0 I1Cent=   200000004 NGrid=           0
         NMat0=    1 NMatS0=      1 NMatT0=    0 NMatD0=    1 NMtDS0=    0 NMtDT0=    0
 Symmetry not used in FoFCou.
 Keep R1 ints in memory in canonical form, NReq=47237219.
 Requested convergence on RMS density matrix=1.00D-08 within 128 cycles.
 Requested convergence on MAX density matrix=1.00D-06.
 Requested convergence on             energy=1.00D-06.
 No special actions if energy rises.
 SCF Done:  E(RB3LYP) =  -343.413574570     A.U. after   12 cycles
            NFock= 12  Conv=0.42D-08     -V/T= 2.0093
 DoSCS=F DFT=T ScalE2(SS,OS)=  1.000000  1.000000
 Range of M.O.s used for correlation:     1   126
 NBasis=   126 NAE=    24 NBE=    24 NFC=     0 NFV=     0
 NROrb=    126 NOA=    24 NOB=    24 NVA=   102 NVB=   102

 **** Warning!!: The largest alpha MO coefficient is  0.32910070D+02

 Symmetrizing basis deriv contribution to polar:
 IMax=3 JMax=2 DiffMx= 0.00D+00
 G2DrvN: will do    13 centers at a time, making    1 passes.
 Calling FoFCou, ICntrl=  3107 FMM=F I1Cent=   0 AccDes= 0.00D+00.
 End of G2Drv F.D. properties file   721 does not exist.
 End of G2Drv F.D. properties file   722 does not exist.
 End of G2Drv F.D. properties file   788 does not exist.
          IDoAtm=111111111111
          Differentiating once with respect to nuclear coordinates.
 Keep R1 ints in memory in canonical form, NReq=47193234.
          There are    39 degrees of freedom in the 1st order CPHF.  IDoFFX=6 NUNeed=     0.
     33 vectors produced by pass  0 Test12= 6.28D-15 2.56D-09 XBig12= 1.67D-01 1.14D-01.
 AX will form    33 AO Fock derivatives at one time.
     33 vectors produced by pass  1 Test12= 6.28D-15 2.56D-09 XBig12= 1.11D-02 2.17D-02.
     33 vectors produced by pass  2 Test12= 6.28D-15 2.56D-09 XBig12= 1.58D-04 1.91D-03.
     33 vectors produced by pass  3 Test12= 6.28D-15 2.56D-09 XBig12= 9.00D-07 1.58D-04.
     33 vectors produced by pass  4 Test12= 6.28D-15 2.56D-09 XBig12= 2.21D-09 8.84D-06.
     30 vectors produced by pass  5 Test12= 6.28D-15 2.56D-09 XBig12= 3.24D-12 2.89D-07.
      5 vectors produced by pass  6 Test12= 6.28D-15 2.56D-09 XBig12= 2.74D-15 7.87D-09.
 InvSVY:  IOpt=1 It=  1 EMax= 2.22D-15
 Solved reduced A of dimension   200 with    33 vectors.
 End of Minotr F.D. properties file   721 does not exist.
 End of Minotr F.D. properties file   722 does not exist.
 End of Minotr F.D. properties file   788 does not exist.
 Calling FoFJK, ICntrl=    100127 FMM=F ISym2X=0 I1Cent= 0 IOpClX= 0 NMat=1 NMatS=1 NMatT=0.
 -------------------------------------------------------------------
 Center     Atomic                   Forces (Hartrees/Bohr)
 Number     Number              X              Y              Z
 -------------------------------------------------------------------
      1        6           0.008155332    0.010021337    0.009152208
      2        6           0.003176043    0.002980559    0.009916994
      3        6          -0.008225962   -0.011474159   -0.001398870
      4        8           0.000063320   -0.000499568   -0.009435323
      5        8          -0.003164632    0.000406808   -0.007724780
      6        8          -0.000631769   -0.002500501    0.000745747
      7        1          -0.000160203    0.000127156   -0.001014129
      8        1           0.000249954    0.000356090    0.000349841
      9        1          -0.000357335    0.000185574    0.000009265
     10        1           0.000381992   -0.000126848    0.000073086
     11        1           0.000120050    0.000389232    0.000074003
     12        1           0.000393210    0.000134319   -0.000748043
 -------------------------------------------------------------------
 Cartesian Forces:  Max     0.011474159 RMS     0.004528463
 IRC-IRC-IRC-IRC-IRC-IRC-IRC-IRC-IRC-IRC-IRC-IRC-IRC-IRC-IRC-IRC-IRC-IRC
 Pt  3 Step number   1 out of a maximum of 100
 Modified Bulirsch-Stoer Extrapolation Cycles:
    EPS =    0.000010000000000
      PEZero:  N= 2 I= 1 D=  1.56D-03 Err=  5.81D-05
      PEZero:  N= 3 I= 2 D=  1.56D-03 Err=  3.86D-05
      PEZero:  N= 3 I= 1 D=  3.12D-03 Err=  1.19D-07
 Maximum DWI energy   std dev =  0.000002689 at pt    26
 Maximum DWI gradient std dev =  0.015604525 at pt    24
 CORRECTOR INTEGRATION CONVERGENCE:
   Recorrection delta-x convergence threshold:    0.010000
   Delta-x Convergence Met
 Point Number:   3          Path Number:   1
   CHANGE IN THE REACTION COORDINATE =    0.29959
   NET REACTION COORDINATE UP TO THIS POINT =    0.89884
  # OF POINTS ALONG THE PATH =   3
  # OF STEPS =   1

 Calculating another point on the path.
 IRC-IRC-IRC-IRC-IRC-IRC-IRC-IRC-IRC-IRC-IRC-IRC-IRC-IRC-IRC-IRC-IRC-IRC
                          Input orientation:                          
 ---------------------------------------------------------------------
 Center     Atomic      Atomic             Coordinates (Angstroms)
 Number     Number       Type             X           Y           Z
 ---------------------------------------------------------------------
      1          6           0       -0.517582    0.056767   -1.631938
      2          6           0       -0.865841   -1.123824   -0.852200
      3          6           0       -0.384407   -0.544704    0.666252
      4          8           0        0.537294    0.591832   -0.245821
      5          8           0        0.670742    1.859350    0.455788
      6          8           0        0.290718   -1.214013    1.428766
      7          1           0        1.634303    1.860570    0.611220
      8          1           0       -1.240956    0.860178   -1.747076
      9          1           0        0.247768    0.019292   -2.401143
     10          1           0       -1.153793    0.170585    1.019514
     11          1           0       -0.289785   -2.020739   -1.079202
     12          1           0       -1.934585   -1.333694   -0.765945
 ---------------------------------------------------------------------
                    Distance matrix (angstroms):
                    1          2          3          4          5
     1  C    0.000000
     2  C    1.457076   0.000000
     3  C    2.379324   1.694951   0.000000
     4  O    1.822190   2.297816   1.724275   0.000000
     5  O    3.003335   3.601562   2.633840   1.454877   0.000000
     6  O    3.411178   2.559018   1.218686   2.475099   3.246024
     7  H    3.593893   4.159198   3.140631   1.883520   0.976018
     8  H    1.087196   2.208568   2.920876   2.342636   3.083106
     9  H    1.085745   2.223975   3.182240   2.248786   3.424438
    10  H    2.729086   2.293845   1.108326   2.153670   2.549244
    11  H    2.161814   1.089875   2.287847   2.864282   4.281811
    12  H    2.165924   1.092565   2.253164   3.176219   4.298360
                    6          7          8          9         10
     6  O    0.000000
     7  H    3.453501   0.000000
     8  H    4.090753   3.850903   0.000000
     9  H    4.023815   3.793035   1.830626   0.000000
    10  H    2.042355   3.285763   2.852569   3.699751   0.000000
    11  H    2.697720   4.650183   3.106519   2.489622   3.154841
    12  H    3.127787   4.983661   2.501362   3.044193   2.461779
                   11         12
    11  H    0.000000
    12  H    1.809843   0.000000
 Symmetry turned off by external request.
 Stoichiometry    C3H6O3
 Framework group  C1[X(C3H6O3)]
 Deg. of freedom    30
 Full point group                 C1      NOp   1
 Rotational constants (GHZ):           4.3829542           3.5977325           2.1563744
 Standard basis: 6-31+G(d) (6D, 7F)
   126 basis functions,   216 primitive gaussians,   126 cartesian basis functions
    24 alpha electrons       24 beta electrons
       nuclear repulsion energy       245.5471012097 Hartrees.
 NAtoms=   12 NActive=   12 NUniq=   12 SFac= 1.00D+00 NAtFMM=   60 NAOKFM=F Big=F
 Integral buffers will be    131072 words long.
 Raffenetti 2 integral format.
 Two-electron integral symmetry is turned off.
 One-electron integrals computed using PRISM.
 NBasis=   126 RedAO= T EigKep=  1.21D-04  NBF=   126
 NBsUse=   126 1.00D-06 EigRej= -1.00D+00 NBFU=   126
 Initial guess from the checkpoint file:  "/scratch/halstead/z/zhao922/pyGSM/KHP-network/pp_0/IRC-folder/Gau-19372.chk"
 B after Tr=     0.000184    0.000451   -0.000499
         Rot=    1.000000   -0.000053   -0.000079   -0.000010 Ang=  -0.01 deg.
 ExpMin= 4.38D-02 ExpMax= 5.48D+03 ExpMxC= 8.25D+02 IAcc=3 IRadAn=         5 AccDes= 0.00D+00
 Harris functional with IExCor=  402 and IRadAn=       5 diagonalized for initial guess.
 HarFok:  IExCor=  402 AccDes= 0.00D+00 IRadAn=         5 IDoV= 1 UseB2=F ITyADJ=14
 ICtDFT=  3500011 ScaDFX=  1.000000  1.000000  1.000000  1.000000
 FoFCou: FMM=F IPFlag=           0 FMFlag=      100000 FMFlg1=           0
         NFxFlg=           0 DoJE=T BraDBF=F KetDBF=T FulRan=T
         wScrn=  0.000000 ICntrl=       500 IOpCl=  0 I1Cent=   200000004 NGrid=           0
         NMat0=    1 NMatS0=      1 NMatT0=    0 NMatD0=    1 NMtDS0=    0 NMtDT0=    0
 Symmetry not used in FoFCou.
 Keep R1 ints in memory in canonical form, NReq=47237219.
 Requested convergence on RMS density matrix=1.00D-08 within 128 cycles.
 Requested convergence on MAX density matrix=1.00D-06.
 Requested convergence on             energy=1.00D-06.
 No special actions if energy rises.
 SCF Done:  E(RB3LYP) =  -343.416223664     A.U. after   12 cycles
            NFock= 12  Conv=0.38D-08     -V/T= 2.0093
 DoSCS=F DFT=T ScalE2(SS,OS)=  1.000000  1.000000
 Range of M.O.s used for correlation:     1   126
 NBasis=   126 NAE=    24 NBE=    24 NFC=     0 NFV=     0
 NROrb=    126 NOA=    24 NOB=    24 NVA=   102 NVB=   102

 **** Warning!!: The largest alpha MO coefficient is  0.32638297D+02

 Symmetrizing basis deriv contribution to polar:
 IMax=3 JMax=2 DiffMx= 0.00D+00
 G2DrvN: will do    13 centers at a time, making    1 passes.
 Calling FoFCou, ICntrl=  3107 FMM=F I1Cent=   0 AccDes= 0.00D+00.
 End of G2Drv F.D. properties file   721 does not exist.
 End of G2Drv F.D. properties file   722 does not exist.
 End of G2Drv F.D. properties file   788 does not exist.
          IDoAtm=111111111111
          Differentiating once with respect to nuclear coordinates.
 Keep R1 ints in memory in canonical form, NReq=47193234.
          There are    39 degrees of freedom in the 1st order CPHF.  IDoFFX=6 NUNeed=     0.
     33 vectors produced by pass  0 Test12= 6.28D-15 2.56D-09 XBig12= 1.60D-01 1.11D-01.
 AX will form    33 AO Fock derivatives at one time.
     33 vectors produced by pass  1 Test12= 6.28D-15 2.56D-09 XBig12= 1.13D-02 2.41D-02.
     33 vectors produced by pass  2 Test12= 6.28D-15 2.56D-09 XBig12= 1.54D-04 1.95D-03.
     33 vectors produced by pass  3 Test12= 6.28D-15 2.56D-09 XBig12= 1.35D-06 1.92D-04.
     33 vectors produced by pass  4 Test12= 6.28D-15 2.56D-09 XBig12= 3.40D-09 9.73D-06.
     30 vectors produced by pass  5 Test12= 6.28D-15 2.56D-09 XBig12= 4.94D-12 2.96D-07.
      5 vectors produced by pass  6 Test12= 6.28D-15 2.56D-09 XBig12= 4.20D-15 8.41D-09.
 InvSVY:  IOpt=1 It=  1 EMax= 1.67D-15
 Solved reduced A of dimension   200 with    33 vectors.
 End of Minotr F.D. properties file   721 does not exist.
 End of Minotr F.D. properties file   722 does not exist.
 End of Minotr F.D. properties file   788 does not exist.
 Calling FoFJK, ICntrl=    100127 FMM=F ISym2X=0 I1Cent= 0 IOpClX= 0 NMat=1 NMatS=1 NMatT=0.
 -------------------------------------------------------------------
 Center     Atomic                   Forces (Hartrees/Bohr)
 Number     Number              X              Y              Z
 -------------------------------------------------------------------
      1        6           0.010605189    0.012943259    0.012444746
      2        6           0.003665328    0.003424780    0.011455228
      3        6          -0.010221110   -0.014173757   -0.000797332
      4        8           0.000520835   -0.000762180   -0.012530165
      5        8          -0.004364678    0.000689226   -0.010237629
      6        8          -0.000898888   -0.003523817    0.001020709
      7        1          -0.000222640    0.000175552   -0.001265427
      8        1           0.000335421    0.000485304    0.000546013
      9        1          -0.000412758    0.000291873    0.000057739
     10        1           0.000390657   -0.000164658    0.000133710
     11        1           0.000190442    0.000463870    0.000089521
     12        1           0.000412201    0.000150549   -0.000917112
 -------------------------------------------------------------------
 Cartesian Forces:  Max     0.014173757 RMS     0.005768194
 IRC-IRC-IRC-IRC-IRC-IRC-IRC-IRC-IRC-IRC-IRC-IRC-IRC-IRC-IRC-IRC-IRC-IRC
 Pt  4 Step number   1 out of a maximum of 100
 Modified Bulirsch-Stoer Extrapolation Cycles:
    EPS =    0.000010000000000
      PEZero:  N= 2 I= 1 D=  1.56D-03 Err=  6.49D-05
      PEZero:  N= 3 I= 2 D=  1.56D-03 Err=  4.32D-05
      PEZero:  N= 3 I= 1 D=  3.12D-03 Err=  1.32D-07
 Maximum DWI energy   std dev =  0.000003137 at pt    27
 Maximum DWI gradient std dev =  0.010663216 at pt    24
 CORRECTOR INTEGRATION CONVERGENCE:
   Recorrection delta-x convergence threshold:    0.010000
   Delta-x Convergence Met
 Point Number:   4          Path Number:   1
   CHANGE IN THE REACTION COORDINATE =    0.29959
   NET REACTION COORDINATE UP TO THIS POINT =    1.19843
  # OF POINTS ALONG THE PATH =   4
  # OF STEPS =   1

 Calculating another point on the path.
 IRC-IRC-IRC-IRC-IRC-IRC-IRC-IRC-IRC-IRC-IRC-IRC-IRC-IRC-IRC-IRC-IRC-IRC
                          Input orientation:                          
 ---------------------------------------------------------------------
 Center     Atomic      Atomic             Coordinates (Angstroms)
 Number     Number       Type             X           Y           Z
 ---------------------------------------------------------------------
      1          6           0       -0.503397    0.074148   -1.614594
      2          6           0       -0.860914   -1.119319   -0.837569
      3          6           0       -0.397926   -0.563487    0.665534
      4          8           0        0.538027    0.590990   -0.258624
      5          8           0        0.666151    1.860133    0.445287
      6          8           0        0.289847   -1.217779    1.429946
      7          1           0        1.631223    1.863568    0.591413
      8          1           0       -1.235792    0.868635   -1.737659
      9          1           0        0.243394    0.024442   -2.401782
     10          1           0       -1.149382    0.169776    1.022940
     11          1           0       -0.286333   -2.014274   -1.078236
     12          1           0       -1.931715   -1.332205   -0.780358
 ---------------------------------------------------------------------
                    Distance matrix (angstroms):
                    1          2          3          4          5
     1  C    0.000000
     2  C    1.468315   0.000000
     3  C    2.369954   1.668120   0.000000
     4  O    1.786154   2.284157   1.750112   0.000000
     5  O    2.966597   3.585357   2.656069   1.456925   0.000000
     6  O    3.401108   2.544714   1.218793   2.486867   3.253414
     7  H    3.553181   4.141298   3.164417   1.880716   0.976078
     8  H    1.087546   2.214195   2.920330   2.326170   3.060344
     9  H    1.086201   2.230347   3.188319   2.236272   3.413838
    10  H    2.717172   2.281770   1.109100   2.160365   2.546989
    11  H    2.167095   1.090417   2.271116   2.852847   4.270759
    12  H    2.171144   1.093255   2.243667   3.173407   4.294431
                    6          7          8          9         10
     6  O    0.000000
     7  H    3.463687   0.000000
     8  H    4.088327   3.825473   0.000000
     9  H    4.028326   3.777257   1.828035   0.000000
    10  H    2.040182   3.284344   2.848996   3.699955   0.000000
    11  H    2.693950   4.637069   3.106039   2.487719   3.151170
    12  H    3.135901   4.978880   2.498886   3.033249   2.473839
                   11         12
    11  H    0.000000
    12  H    1.805888   0.000000
 Symmetry turned off by external request.
 Stoichiometry    C3H6O3
 Framework group  C1[X(C3H6O3)]
 Deg. of freedom    30
 Full point group                 C1      NOp   1
 Rotational constants (GHZ):           4.4091996           3.6026966           2.1661196
 Standard basis: 6-31+G(d) (6D, 7F)
   126 basis functions,   216 primitive gaussians,   126 cartesian basis functions
    24 alpha electrons       24 beta electrons
       nuclear repulsion energy       245.8570896533 Hartrees.
 NAtoms=   12 NActive=   12 NUniq=   12 SFac= 1.00D+00 NAtFMM=   60 NAOKFM=F Big=F
 Integral buffers will be    131072 words long.
 Raffenetti 2 integral format.
 Two-electron integral symmetry is turned off.
 One-electron integrals computed using PRISM.
 NBasis=   126 RedAO= T EigKep=  1.22D-04  NBF=   126
 NBsUse=   126 1.00D-06 EigRej= -1.00D+00 NBFU=   126
 Initial guess from the checkpoint file:  "/scratch/halstead/z/zhao922/pyGSM/KHP-network/pp_0/IRC-folder/Gau-19372.chk"
 B after Tr=     0.000178    0.000455   -0.000421
         Rot=    1.000000   -0.000066   -0.000082   -0.000021 Ang=  -0.01 deg.
 ExpMin= 4.38D-02 ExpMax= 5.48D+03 ExpMxC= 8.25D+02 IAcc=3 IRadAn=         5 AccDes= 0.00D+00
 Harris functional with IExCor=  402 and IRadAn=       5 diagonalized for initial guess.
 HarFok:  IExCor=  402 AccDes= 0.00D+00 IRadAn=         5 IDoV= 1 UseB2=F ITyADJ=14
 ICtDFT=  3500011 ScaDFX=  1.000000  1.000000  1.000000  1.000000
 FoFCou: FMM=F IPFlag=           0 FMFlag=      100000 FMFlg1=           0
         NFxFlg=           0 DoJE=T BraDBF=F KetDBF=T FulRan=T
         wScrn=  0.000000 ICntrl=       500 IOpCl=  0 I1Cent=   200000004 NGrid=           0
         NMat0=    1 NMatS0=      1 NMatT0=    0 NMatD0=    1 NMtDS0=    0 NMtDT0=    0
 Symmetry not used in FoFCou.
 Keep R1 ints in memory in canonical form, NReq=47237219.
 Requested convergence on RMS density matrix=1.00D-08 within 128 cycles.
 Requested convergence on MAX density matrix=1.00D-06.
 Requested convergence on             energy=1.00D-06.
 No special actions if energy rises.
 SCF Done:  E(RB3LYP) =  -343.419450950     A.U. after   12 cycles
            NFock= 12  Conv=0.33D-08     -V/T= 2.0093
 DoSCS=F DFT=T ScalE2(SS,OS)=  1.000000  1.000000
 Range of M.O.s used for correlation:     1   126
 NBasis=   126 NAE=    24 NBE=    24 NFC=     0 NFV=     0
 NROrb=    126 NOA=    24 NOB=    24 NVA=   102 NVB=   102

 **** Warning!!: The largest alpha MO coefficient is  0.32127193D+02

 Symmetrizing basis deriv contribution to polar:
 IMax=3 JMax=2 DiffMx= 0.00D+00
 G2DrvN: will do    13 centers at a time, making    1 passes.
 Calling FoFCou, ICntrl=  3107 FMM=F I1Cent=   0 AccDes= 0.00D+00.
 End of G2Drv F.D. properties file   721 does not exist.
 End of G2Drv F.D. properties file   722 does not exist.
 End of G2Drv F.D. properties file   788 does not exist.
          IDoAtm=111111111111
          Differentiating once with respect to nuclear coordinates.
 Keep R1 ints in memory in canonical form, NReq=47193234.
          There are    39 degrees of freedom in the 1st order CPHF.  IDoFFX=6 NUNeed=     0.
     33 vectors produced by pass  0 Test12= 6.28D-15 2.56D-09 XBig12= 1.53D-01 1.08D-01.
 AX will form    33 AO Fock derivatives at one time.
     33 vectors produced by pass  1 Test12= 6.28D-15 2.56D-09 XBig12= 1.14D-02 2.63D-02.
     33 vectors produced by pass  2 Test12= 6.28D-15 2.56D-09 XBig12= 1.99D-04 2.00D-03.
     33 vectors produced by pass  3 Test12= 6.28D-15 2.56D-09 XBig12= 1.86D-06 2.29D-04.
     33 vectors produced by pass  4 Test12= 6.28D-15 2.56D-09 XBig12= 4.62D-09 1.16D-05.
     29 vectors produced by pass  5 Test12= 6.28D-15 2.56D-09 XBig12= 6.36D-12 3.39D-07.
      4 vectors produced by pass  6 Test12= 6.28D-15 2.56D-09 XBig12= 5.49D-15 7.88D-09.
 InvSVY:  IOpt=1 It=  1 EMax= 1.33D-15
 Solved reduced A of dimension   198 with    33 vectors.
 End of Minotr F.D. properties file   721 does not exist.
 End of Minotr F.D. properties file   722 does not exist.
 End of Minotr F.D. properties file   788 does not exist.
 Calling FoFJK, ICntrl=    100127 FMM=F ISym2X=0 I1Cent= 0 IOpClX= 0 NMat=1 NMatS=1 NMatT=0.
 -------------------------------------------------------------------
 Center     Atomic                   Forces (Hartrees/Bohr)
 Number     Number              X              Y              Z
 -------------------------------------------------------------------
      1        6           0.012718798    0.015418568    0.015568142
      2        6           0.003836542    0.003591862    0.012081746
      3        6          -0.011722344   -0.016135192    0.000238621
      4        8           0.001220263   -0.001016922   -0.015336078
      5        8          -0.005570904    0.000989110   -0.012574577
      6        8          -0.001209973   -0.004560483    0.001288026
      7        1          -0.000294720    0.000222473   -0.001449184
      8        1           0.000422194    0.000609211    0.000783302
      9        1          -0.000458771    0.000417586    0.000145516
     10        1           0.000369212   -0.000226068    0.000198816
     11        1           0.000263401    0.000523618    0.000099706
     12        1           0.000426301    0.000166236   -0.001044037
 -------------------------------------------------------------------
 Cartesian Forces:  Max     0.016135192 RMS     0.006812425
 IRC-IRC-IRC-IRC-IRC-IRC-IRC-IRC-IRC-IRC-IRC-IRC-IRC-IRC-IRC-IRC-IRC-IRC
 Pt  5 Step number   1 out of a maximum of 100
 Modified Bulirsch-Stoer Extrapolation Cycles:
    EPS =    0.000010000000000
      PEZero:  N= 2 I= 1 D=  1.56D-03 Err=  6.83D-05
      PEZero:  N= 3 I= 2 D=  1.56D-03 Err=  4.55D-05
      PEZero:  N= 3 I= 1 D=  3.12D-03 Err=  1.34D-07
 Maximum DWI energy   std dev =  0.000003415 at pt    27
 Maximum DWI gradient std dev =  0.007902609 at pt    24
 CORRECTOR INTEGRATION CONVERGENCE:
   Recorrection delta-x convergence threshold:    0.010000
   Delta-x Convergence Met
 Point Number:   5          Path Number:   1
   CHANGE IN THE REACTION COORDINATE =    0.29959
   NET REACTION COORDINATE UP TO THIS POINT =    1.49802
  # OF POINTS ALONG THE PATH =   5
  # OF STEPS =   1

 Calculating another point on the path.
 IRC-IRC-IRC-IRC-IRC-IRC-IRC-IRC-IRC-IRC-IRC-IRC-IRC-IRC-IRC-IRC-IRC-IRC
                          Input orientation:                          
 ---------------------------------------------------------------------
 Center     Atomic      Atomic             Coordinates (Angstroms)
 Number     Number       Type             X           Y           Z
 ---------------------------------------------------------------------
      1          6           0       -0.488970    0.091710   -1.596294
      2          6           0       -0.856611   -1.115360   -0.824545
      3          6           0       -0.411063   -0.581584    0.666213
      4          8           0        0.539332    0.590063   -0.271884
      5          8           0        0.661188    1.861058    0.434343
      6          8           0        0.288808   -1.221878    1.431168
      7          1           0        1.627498    1.866748    0.572221
      8          1           0       -1.230176    0.877458   -1.726209
      9          1           0        0.238871    0.030571   -2.400982
     10          1           0       -1.145744    0.167959    1.026636
     11          1           0       -0.282449   -2.007844   -1.077269
     12          1           0       -1.928647   -1.330613   -0.794381
 ---------------------------------------------------------------------
                    Distance matrix (angstroms):
                    1          2          3          4          5
     1  C    0.000000
     2  C    1.479112   0.000000
     3  C    2.361849   1.644929   0.000000
     4  O    1.749235   2.272126   1.776522   0.000000
     5  O    2.928641   3.570374   2.677683   1.459121   0.000000
     6  O    3.390572   2.532109   1.218586   2.499255   3.261413
     7  H    3.511788   4.124891   3.187302   1.877910   0.976114
     8  H    1.087964   2.218980   2.919492   2.308423   3.035245
     9  H    1.086745   2.235708   3.194500   2.221794   3.401191
    10  H    2.704982   2.270986   1.109719   2.168826   2.546056
    11  H    2.172593   1.090898   2.256211   2.841318   4.259556
    12  H    2.176864   1.093849   2.235496   3.170634   4.289961
                    6          7          8          9         10
     6  O    0.000000
     7  H    3.474117   0.000000
     8  H    4.084551   3.798392   0.000000
     9  H    4.031935   3.760289   1.825003   0.000000
    10  H    2.037948   3.283786   2.844060   3.699270   0.000000
    11  H    2.690044   4.623978   3.105523   2.485784   3.147350
    12  H    3.143565   4.973619   2.496346   3.021940   2.484905
                   11         12
    11  H    0.000000
    12  H    1.802397   0.000000
 Symmetry turned off by external request.
 Stoichiometry    C3H6O3
 Framework group  C1[X(C3H6O3)]
 Deg. of freedom    30
 Full point group                 C1      NOp   1
 Rotational constants (GHZ):           4.4429878           3.6004258           2.1752789
 Standard basis: 6-31+G(d) (6D, 7F)
   126 basis functions,   216 primitive gaussians,   126 cartesian basis functions
    24 alpha electrons       24 beta electrons
       nuclear repulsion energy       246.1668815367 Hartrees.
 NAtoms=   12 NActive=   12 NUniq=   12 SFac= 1.00D+00 NAtFMM=   60 NAOKFM=F Big=F
 Integral buffers will be    131072 words long.
 Raffenetti 2 integral format.
 Two-electron integral symmetry is turned off.
 One-electron integrals computed using PRISM.
 NBasis=   126 RedAO= T EigKep=  1.22D-04  NBF=   126
 NBsUse=   126 1.00D-06 EigRej= -1.00D+00 NBFU=   126
 Initial guess from the checkpoint file:  "/scratch/halstead/z/zhao922/pyGSM/KHP-network/pp_0/IRC-folder/Gau-19372.chk"
 B after Tr=     0.000169    0.000464   -0.000329
         Rot=    1.000000   -0.000082   -0.000087   -0.000032 Ang=  -0.01 deg.
 ExpMin= 4.38D-02 ExpMax= 5.48D+03 ExpMxC= 8.25D+02 IAcc=3 IRadAn=         5 AccDes= 0.00D+00
 Harris functional with IExCor=  402 and IRadAn=       5 diagonalized for initial guess.
 HarFok:  IExCor=  402 AccDes= 0.00D+00 IRadAn=         5 IDoV= 1 UseB2=F ITyADJ=14
 ICtDFT=  3500011 ScaDFX=  1.000000  1.000000  1.000000  1.000000
 FoFCou: FMM=F IPFlag=           0 FMFlag=      100000 FMFlg1=           0
         NFxFlg=           0 DoJE=T BraDBF=F KetDBF=T FulRan=T
         wScrn=  0.000000 ICntrl=       500 IOpCl=  0 I1Cent=   200000004 NGrid=           0
         NMat0=    1 NMatS0=      1 NMatT0=    0 NMatD0=    1 NMtDS0=    0 NMtDT0=    0
 Symmetry not used in FoFCou.
 Keep R1 ints in memory in canonical form, NReq=47237219.
 Requested convergence on RMS density matrix=1.00D-08 within 128 cycles.
 Requested convergence on MAX density matrix=1.00D-06.
 Requested convergence on             energy=1.00D-06.
 No special actions if energy rises.
 SCF Done:  E(RB3LYP) =  -343.423148538     A.U. after   12 cycles
            NFock= 12  Conv=0.28D-08     -V/T= 2.0093
 DoSCS=F DFT=T ScalE2(SS,OS)=  1.000000  1.000000
 Range of M.O.s used for correlation:     1   126
 NBasis=   126 NAE=    24 NBE=    24 NFC=     0 NFV=     0
 NROrb=    126 NOA=    24 NOB=    24 NVA=   102 NVB=   102

 **** Warning!!: The largest alpha MO coefficient is  0.31927322D+02

 Symmetrizing basis deriv contribution to polar:
 IMax=3 JMax=2 DiffMx= 0.00D+00
 G2DrvN: will do    13 centers at a time, making    1 passes.
 Calling FoFCou, ICntrl=  3107 FMM=F I1Cent=   0 AccDes= 0.00D+00.
 End of G2Drv F.D. properties file   721 does not exist.
 End of G2Drv F.D. properties file   722 does not exist.
 End of G2Drv F.D. properties file   788 does not exist.
          IDoAtm=111111111111
          Differentiating once with respect to nuclear coordinates.
 Keep R1 ints in memory in canonical form, NReq=47193234.
          There are    39 degrees of freedom in the 1st order CPHF.  IDoFFX=6 NUNeed=     0.
     33 vectors produced by pass  0 Test12= 6.28D-15 2.56D-09 XBig12= 1.47D-01 1.06D-01.
 AX will form    33 AO Fock derivatives at one time.
     33 vectors produced by pass  1 Test12= 6.28D-15 2.56D-09 XBig12= 1.13D-02 2.79D-02.
     33 vectors produced by pass  2 Test12= 6.28D-15 2.56D-09 XBig12= 2.51D-04 2.38D-03.
     33 vectors produced by pass  3 Test12= 6.28D-15 2.56D-09 XBig12= 2.30D-06 2.40D-04.
     33 vectors produced by pass  4 Test12= 6.28D-15 2.56D-09 XBig12= 5.56D-09 1.16D-05.
     29 vectors produced by pass  5 Test12= 6.28D-15 2.56D-09 XBig12= 7.14D-12 3.25D-07.
      5 vectors produced by pass  6 Test12= 6.28D-15 2.56D-09 XBig12= 6.15D-15 8.49D-09.
 InvSVY:  IOpt=1 It=  1 EMax= 2.22D-15
 Solved reduced A of dimension   199 with    33 vectors.
 End of Minotr F.D. properties file   721 does not exist.
 End of Minotr F.D. properties file   722 does not exist.
 End of Minotr F.D. properties file   788 does not exist.
 Calling FoFJK, ICntrl=    100127 FMM=F ISym2X=0 I1Cent= 0 IOpClX= 0 NMat=1 NMatS=1 NMatT=0.
 -------------------------------------------------------------------
 Center     Atomic                   Forces (Hartrees/Bohr)
 Number     Number              X              Y              Z
 -------------------------------------------------------------------
      1        6           0.014357337    0.017307440    0.018322937
      2        6           0.003763129    0.003576111    0.011931995
      3        6          -0.012734645   -0.017375687    0.001520974
      4        8           0.002180812   -0.001214609   -0.017659721
      5        8          -0.006740378    0.001273380   -0.014667835
      6        8          -0.001549600   -0.005575578    0.001555901
      7        1          -0.000372653    0.000272690   -0.001558229
      8        1           0.000506673    0.000727800    0.001053494
      9        1          -0.000498504    0.000558644    0.000256878
     10        1           0.000322252   -0.000301370    0.000271201
     11        1           0.000332899    0.000569123    0.000101089
     12        1           0.000432679    0.000182057   -0.001128684
 -------------------------------------------------------------------
 Cartesian Forces:  Max     0.018322937 RMS     0.007638916
 IRC-IRC-IRC-IRC-IRC-IRC-IRC-IRC-IRC-IRC-IRC-IRC-IRC-IRC-IRC-IRC-IRC-IRC
 Pt  6 Step number   1 out of a maximum of 100
 Modified Bulirsch-Stoer Extrapolation Cycles:
    EPS =    0.000010000000000
      PEZero:  N= 2 I= 1 D=  1.56D-03 Err=  6.79D-05
      PEZero:  N= 3 I= 2 D=  1.56D-03 Err=  4.52D-05
      PEZero:  N= 3 I= 1 D=  3.12D-03 Err=  1.29D-07
 Maximum DWI energy   std dev =  0.000003558 at pt    28
 Maximum DWI gradient std dev =  0.006123147 at pt    24
 CORRECTOR INTEGRATION CONVERGENCE:
   Recorrection delta-x convergence threshold:    0.010000
   Delta-x Convergence Met
 Point Number:   6          Path Number:   1
   CHANGE IN THE REACTION COORDINATE =    0.29959
   NET REACTION COORDINATE UP TO THIS POINT =    1.79762
  # OF POINTS ALONG THE PATH =   6
  # OF STEPS =   1

 Calculating another point on the path.
 IRC-IRC-IRC-IRC-IRC-IRC-IRC-IRC-IRC-IRC-IRC-IRC-IRC-IRC-IRC-IRC-IRC-IRC
                          Input orientation:                          
 ---------------------------------------------------------------------
 Center     Atomic      Atomic             Coordinates (Angstroms)
 Number     Number       Type             X           Y           Z
 ---------------------------------------------------------------------
      1          6           0       -0.474464    0.109286   -1.577166
      2          6           0       -0.852878   -1.111845   -0.813109
      3          6           0       -0.423812   -0.598974    0.668170
      4          8           0        0.541329    0.589101   -0.285467
      5          8           0        0.655830    1.862100    0.422932
      6          8           0        0.287593   -1.226335    1.432463
      7          1           0        1.623098    1.870249    0.553851
      8          1           0       -1.224082    0.886752   -1.712497
      9          1           0        0.234141    0.037803   -2.398836
     10          1           0       -1.142918    0.165189    1.030759
     11          1           0       -0.278173   -2.001434   -1.076386
     12          1           0       -1.925470   -1.328896   -0.807979
 ---------------------------------------------------------------------
                    Distance matrix (angstroms):
                    1          2          3          4          5
     1  C    0.000000
     2  C    1.489343   0.000000
     3  C    2.354938   1.625215   0.000000
     4  O    1.711883   2.261733   1.803453   0.000000
     5  O    2.889691   3.556452   2.698639   1.461324   0.000000
     6  O    3.379716   2.521185   1.218122   2.512264   3.270043
     7  H    3.470157   4.109979   3.209357   1.875106   0.976122
     8  H    1.088437   2.222855   2.918115   2.289473   3.007563
     9  H    1.087370   2.240052   3.200767   2.205589   3.386481
    10  H    2.692810   2.261590   1.110193   2.179183   2.546459
    11  H    2.178177   1.091316   2.243119   2.829843   4.248201
    12  H    2.182988   1.094345   2.228627   3.168095   4.284940
                    6          7          8          9         10
     6  O    0.000000
     7  H    3.484877   0.000000
     8  H    4.079347   3.769621   0.000000
     9  H    4.034817   3.742382   1.821590   0.000000
    10  H    2.035698   3.284131   2.837727   3.697923   0.000000
    11  H    2.686111   4.611121   3.104997   2.483914   3.143581
    12  H    3.150832   4.968043   2.493831   3.010417   2.495122
                   11         12
    11  H    0.000000
    12  H    1.799427   0.000000
 Symmetry turned off by external request.
 Stoichiometry    C3H6O3
 Framework group  C1[X(C3H6O3)]
 Deg. of freedom    30
 Full point group                 C1      NOp   1
 Rotational constants (GHZ):           4.4835216           3.5915705           2.1838135
 Standard basis: 6-31+G(d) (6D, 7F)
   126 basis functions,   216 primitive gaussians,   126 cartesian basis functions
    24 alpha electrons       24 beta electrons
       nuclear repulsion energy       246.4751274470 Hartrees.
 NAtoms=   12 NActive=   12 NUniq=   12 SFac= 1.00D+00 NAtFMM=   60 NAOKFM=F Big=F
 Integral buffers will be    131072 words long.
 Raffenetti 2 integral format.
 Two-electron integral symmetry is turned off.
 One-electron integrals computed using PRISM.
 NBasis=   126 RedAO= T EigKep=  1.22D-04  NBF=   126
 NBsUse=   126 1.00D-06 EigRej= -1.00D+00 NBFU=   126
 Initial guess from the checkpoint file:  "/scratch/halstead/z/zhao922/pyGSM/KHP-network/pp_0/IRC-folder/Gau-19372.chk"
 B after Tr=     0.000156    0.000483   -0.000228
         Rot=    1.000000   -0.000101   -0.000093   -0.000043 Ang=  -0.02 deg.
 ExpMin= 4.38D-02 ExpMax= 5.48D+03 ExpMxC= 8.25D+02 IAcc=3 IRadAn=         5 AccDes= 0.00D+00
 Harris functional with IExCor=  402 and IRadAn=       5 diagonalized for initial guess.
 HarFok:  IExCor=  402 AccDes= 0.00D+00 IRadAn=         5 IDoV= 1 UseB2=F ITyADJ=14
 ICtDFT=  3500011 ScaDFX=  1.000000  1.000000  1.000000  1.000000
 FoFCou: FMM=F IPFlag=           0 FMFlag=      100000 FMFlg1=           0
         NFxFlg=           0 DoJE=T BraDBF=F KetDBF=T FulRan=T
         wScrn=  0.000000 ICntrl=       500 IOpCl=  0 I1Cent=   200000004 NGrid=           0
         NMat0=    1 NMatS0=      1 NMatT0=    0 NMatD0=    1 NMtDS0=    0 NMtDT0=    0
 Symmetry not used in FoFCou.
 Keep R1 ints in memory in canonical form, NReq=47237219.
 Requested convergence on RMS density matrix=1.00D-08 within 128 cycles.
 Requested convergence on MAX density matrix=1.00D-06.
 Requested convergence on             energy=1.00D-06.
 No special actions if energy rises.
 SCF Done:  E(RB3LYP) =  -343.427200897     A.U. after   11 cycles
            NFock= 11  Conv=0.94D-08     -V/T= 2.0093
 DoSCS=F DFT=T ScalE2(SS,OS)=  1.000000  1.000000
 Range of M.O.s used for correlation:     1   126
 NBasis=   126 NAE=    24 NBE=    24 NFC=     0 NFV=     0
 NROrb=    126 NOA=    24 NOB=    24 NVA=   102 NVB=   102

 **** Warning!!: The largest alpha MO coefficient is  0.32424455D+02

 Symmetrizing basis deriv contribution to polar:
 IMax=3 JMax=2 DiffMx= 0.00D+00
[...]
  57                    0.17025   1.01938  -0.28969  -2.02065  -1.07908
  58                    0.16947   1.02285  -0.28625  -2.01420  -1.07813
  59                    0.16769   1.02658  -0.28237  -2.00778  -1.07718
  60                    0.16495   1.03073  -0.27811  -2.00137  -1.07631
  61                    0.16131   1.03543  -0.27349  -1.99494  -1.07560
  62                    0.15682   1.04079  -0.26855  -1.98841  -1.07512
  63                    0.15147   1.04691  -0.26334  -1.98170  -1.07488
  64                    0.14523   1.05387  -0.25788  -1.97472  -1.07490
  65                    0.13803   1.06171  -0.25223  -1.96743  -1.07514
  66                    0.12985   1.07043  -0.24646  -1.95983  -1.07550
  67                    0.12072   1.07994  -0.24069  -1.95203  -1.07586
  68                    0.11073   1.09015  -0.23506  -1.94415  -1.07604
  69                    0.09993   1.10097  -0.22967  -1.93634  -1.07587
  70                    0.08833   1.11238  -0.22461  -1.92874  -1.07517
  71                    0.07586   1.12443  -0.21992  -1.92144  -1.07382
  72                    0.06234   1.13724  -0.21561  -1.91450  -1.07171
  73                    0.04753   1.15092  -0.21168  -1.90794  -1.06875
  74                    0.03115   1.16560  -0.20810  -1.90178  -1.06491
  75                    0.01291   1.18137  -0.20479  -1.89598  -1.06016
  76                   -0.00744   1.19822  -0.20168  -1.89051  -1.05450
  77                   -0.03009   1.21610  -0.19863  -1.88529  -1.04799
  78                   -0.05505   1.23478  -0.19552  -1.88025  -1.04068
  79                   -0.08217   1.25395  -0.19215  -1.87530  -1.03270
  80                   -0.11099   1.27314  -0.18831  -1.87033  -1.02418
  81                   -0.14071   1.29177  -0.18378  -1.86526  -1.01528
  82                   -0.17021   1.30923  -0.17832  -1.86003  -1.00616
  83                   -0.19812   1.32489  -0.17169  -1.85460  -0.99696
  84                   -0.22295   1.33825  -0.16370  -1.84900  -0.98782
  85                   -0.24347   1.34896  -0.15420  -1.84328  -0.97883
  86                   -0.25899   1.35693  -0.14314  -1.83749  -0.97007
  87                   -0.26952   1.36228  -0.13053  -1.83166  -0.96157
  88                   -0.27561   1.36527  -0.11641  -1.82577  -0.95336
  89                   -0.27811   1.36618  -0.10069  -1.81972  -0.94538
  90                   -0.27791   1.36525  -0.08348  -1.81344  -0.93768
  91                   -0.27590   1.36263  -0.06458  -1.80676  -0.93021
  92                   -0.27281   1.35844  -0.04391  -1.79952  -0.92295
  93                   -0.26929   1.35277  -0.02146  -1.79159  -0.91593
  94                   -0.26582   1.34572   0.00266  -1.78289  -0.90915
  95                   -0.26275   1.33745   0.02819  -1.77339  -0.90261
  96                   -0.26023   1.32815   0.05483  -1.76313  -0.89626
  97                   -0.25828   1.31799   0.08229  -1.75216  -0.89006
  98                   -0.25685   1.30716   0.11034  -1.74053  -0.88393
  99                   -0.25585   1.29578   0.13887  -1.72826  -0.87777
 100                   -0.25520   1.28396   0.16783  -1.71534  -0.87150
 101                   -0.25476   1.27180   0.19724  -1.70175  -0.86502
 102                   -0.25435   1.25940   0.22713  -1.68743  -0.85820
 103                   -0.25368   1.24692   0.25756  -1.67234  -0.85091
 104                   -0.25226   1.23464   0.28854  -1.65647  -0.84295
 105                   -0.24927   1.22310   0.31981  -1.63996  -0.83414
 106                   -0.24353   1.21325   0.35060  -1.62326  -0.82442
 107                   -0.23406   1.20644   0.37929  -1.60737  -0.81404
                          X12       Y12       Z12
   1                   -2.46522  -1.81016  -1.79740
   2                   -2.45365  -1.79945  -1.75169
   3                   -2.44261  -1.78672  -1.70397
   4                   -2.43183  -1.77186  -1.65401
   5                   -2.42060  -1.75628  -1.60411
   6                   -2.40876  -1.73984  -1.55371
   7                   -2.39602  -1.72317  -1.50365
   8                   -2.38223  -1.70658  -1.45424
   9                   -2.36735  -1.69038  -1.40583
  10                   -2.35142  -1.67478  -1.35870
  11                   -2.33459  -1.65986  -1.31299
  12                   -2.31703  -1.64566  -1.26884
  13                   -2.29903  -1.63224  -1.22653
  14                   -2.28099  -1.61970  -1.18661
  15                   -2.26344  -1.60816  -1.14973
  16                   -2.24681  -1.59762  -1.11630
  17                   -2.23130  -1.58801  -1.08629
  18                   -2.21691  -1.57916  -1.05931
  19                   -2.20347  -1.57091  -1.03483
  20                   -2.19081  -1.56309  -1.01235
  21                   -2.17873  -1.55558  -0.99140
  22                   -2.16708  -1.54825  -0.97162
  23                   -2.15573  -1.54101  -0.95271
  24                   -2.14455  -1.53378  -0.93443
  25                   -2.13347  -1.52650  -0.91661
  26                   -2.12241  -1.51911  -0.89909
  27                   -2.11130  -1.51156  -0.88175
  28                   -2.10011  -1.50380  -0.86451
  29                   -2.08882  -1.49581  -0.84730
  30                   -2.07741  -1.48756  -0.83008
  31                   -2.06590  -1.47903  -0.81286
  32                   -2.05432  -1.47024  -0.79565
  33                   -2.04272  -1.46119  -0.77851
  34                   -2.03119  -1.45193  -0.76151
  35                   -2.01983  -1.44251  -0.74479
  36                   -2.00875  -1.43300  -0.72848
  37                   -1.99807  -1.42351  -0.71277
  38                   -1.98795  -1.41411  -0.69786
  39                   -1.97853  -1.40493  -0.68400
  40                   -1.96997  -1.39609  -0.67147
  41                   -1.96241  -1.38770  -0.66056
  42                   -1.95599  -1.37988  -0.65159
  43                   -1.95079  -1.37274  -0.64486
  44                   -1.94685  -1.36636  -0.64060
  45                   -1.94411  -1.36077  -0.63897
  46                   -1.94246  -1.35599  -0.64002
  47                   -1.94170  -1.35198  -0.64369
  48                   -1.94158  -1.34867  -0.64981
  49                   -1.94182  -1.34596  -0.65813
  50                   -1.94218  -1.34375  -0.66837
  51                   -1.94240  -1.34191  -0.68018
  52                   -1.94230  -1.34033  -0.69321
  53                   -1.94179  -1.33896  -0.70721
  54                   -1.94063  -1.33762  -0.72163
  55                   -1.93896  -1.33633  -0.73640
  56                   -1.93682  -1.33500  -0.75122
  57                   -1.93429  -1.33360  -0.76589
  58                   -1.93146  -1.33212  -0.78028
  59                   -1.92843  -1.33053  -0.79429
  60                   -1.92529  -1.32882  -0.80789
  61                   -1.92209  -1.32696  -0.82108
  62                   -1.91886  -1.32491  -0.83390
  63                   -1.91563  -1.32266  -0.84638
  64                   -1.91238  -1.32019  -0.85849
  65                   -1.90911  -1.31754  -0.87015
  66                   -1.90586  -1.31474  -0.88118
  67                   -1.90264  -1.31180  -0.89138
  68                   -1.89952  -1.30869  -0.90060
  69                   -1.89650  -1.30533  -0.90879
  70                   -1.89358  -1.30156  -0.91601
  71                   -1.89076  -1.29726  -0.92233
  72                   -1.88797  -1.29230  -0.92788
  73                   -1.88519  -1.28662  -0.93275
  74                   -1.88235  -1.28020  -0.93704
  75                   -1.87939  -1.27308  -0.94080
  76                   -1.87624  -1.26538  -0.94408
  77                   -1.87284  -1.25730  -0.94691
  78                   -1.86911  -1.24906  -0.94929
  79                   -1.86498  -1.24098  -0.95121
  80                   -1.86036  -1.23335  -0.95262
  81                   -1.85519  -1.22651  -0.95352
  82                   -1.84938  -1.22074  -0.95386
  83                   -1.84283  -1.21634  -0.95368
  84                   -1.83547  -1.21353  -0.95300
  85                   -1.82726  -1.21252  -0.95195
  86                   -1.81819  -1.21339  -0.95066
  87                   -1.80828  -1.21618  -0.94932
  88                   -1.79754  -1.22082  -0.94813
  89                   -1.78585  -1.22728  -0.94724
  90                   -1.77328  -1.23549  -0.94681
  91                   -1.75958  -1.24541  -0.94701
  92                   -1.74466  -1.25703  -0.94797
  93                   -1.72841  -1.27028  -0.94978
  94                   -1.71084  -1.28501  -0.95248
  95                   -1.69200  -1.30096  -0.95600
  96                   -1.67203  -1.31787  -0.96021
  97                   -1.65105  -1.33547  -0.96496
  98                   -1.62914  -1.35356  -0.97006
  99                   -1.60634  -1.37200  -0.97538
 100                   -1.58260  -1.39070  -0.98081
 101                   -1.55785  -1.40962  -0.98626
 102                   -1.53198  -1.42873  -0.99162
 103                   -1.50486  -1.44799  -0.99676
 104                   -1.47642  -1.46728  -1.00143
 105                   -1.44678  -1.48631  -1.00522
 106                   -1.41666  -1.50443  -1.00751
 107                   -1.38771  -1.52053  -1.00761
 --------------------------------------------------------------------------
 
 Total number of points:                  106
 Total number of gradient calculations:   110
 Total number of Hessian calculations:    107
 IRC-IRC-IRC-IRC-IRC-IRC-IRC-IRC-IRC-IRC-IRC-IRC-IRC-IRC-IRC-IRC-IRC-IRC
                          Input orientation:                          
 ---------------------------------------------------------------------
 Center     Atomic      Atomic             Coordinates (Angstroms)
 Number     Number       Type             X           Y           Z
 ---------------------------------------------------------------------
      1          6           0       -1.042834   -0.322411   -2.304787
      2          6           0       -1.431876   -1.472855   -1.749135
      3          6           0        0.132866   -0.084305    1.222330
      4          8           0        1.106664    0.670319    0.622581
      5          8           0        0.587947    2.014416    0.403866
      6          8           0        0.341088   -1.238958    1.469024
      7          1           0        1.311856    2.533482    0.801952
      8          1           0       -1.742622    0.327265   -2.826909
      9          1           0       -0.009431    0.014931   -2.260229
     10          1           0       -0.783471    0.490124    1.417663
     11          1           0       -0.733924   -2.122155   -1.225545
     12          1           0       -2.465979   -1.809393   -1.796007
 ---------------------------------------------------------------------
                    Distance matrix (angstroms):
                    1          2          3          4          5
     1  C    0.000000
     2  C    1.335524   0.000000
     3  C    3.725523   3.634019   0.000000
     4  O    3.765015   4.081963   1.370197   0.000000
     5  O    3.931540   4.569043   2.298176   1.457224   0.000000
     6  O    4.122736   3.681665   1.198932   2.224390   3.432192
     7  H    4.832444   5.485148   2.901646   1.882991   0.975678
     8  H    1.088298   2.120988   4.481426   4.487215   4.326192
     9  H    1.087983   2.120866   3.486878   3.160031   3.384110
    10  H    3.818916   3.781842   1.098998   2.058456   2.287365
    11  H    2.121148   1.087600   3.300946   3.821157   4.638269
    12  H    2.120216   1.088496   4.340540   4.976176   5.365391
                    6          7          8          9         10
     6  O    0.000000
     7  H    3.952048   0.000000
     8  H    5.024932   5.231239   0.000000
     9  H    3.949992   4.179217   1.850034   0.000000
    10  H    2.063249   2.990788   4.354640   3.788382   0.000000
    11  H    3.032555   5.474570   3.095399   2.482458   3.716585
    12  H    4.343438   6.315220   2.480184   3.094881   4.294915
                   11         12
    11  H    0.000000
    12  H    1.850206   0.000000
 Symmetry turned off by external request.
 Stoichiometry    C3H6O3
 Framework group  C1[X(C3H6O3)]
 Deg. of freedom    30
 Full point group                 C1      NOp   1
 Rotational constants (GHZ):           3.9193331           1.8048671           1.3060720

 **********************************************************************

            Population analysis using the SCF Density.

 **********************************************************************

 Alpha  occ. eigenvalues --  -19.27813 -19.26134 -19.18222 -10.34638 -10.19206
 Alpha  occ. eigenvalues --  -10.19109  -1.18684  -1.08748  -0.96325  -0.76144
 Alpha  occ. eigenvalues --   -0.64533  -0.59825  -0.58226  -0.52977  -0.49165
 Alpha  occ. eigenvalues --   -0.47083  -0.46020  -0.42612  -0.42177  -0.37779
 Alpha  occ. eigenvalues --   -0.35781  -0.32463  -0.31262  -0.27481
 Alpha virt. eigenvalues --   -0.04506  -0.03217  -0.00518   0.00585   0.02694
 Alpha virt. eigenvalues --    0.03355   0.03810   0.05541   0.06536   0.08252
 Alpha virt. eigenvalues --    0.09580   0.09612   0.11463   0.13285   0.13443
 Alpha virt. eigenvalues --    0.15471   0.16491   0.16993   0.17924   0.19113
 Alpha virt. eigenvalues --    0.19888   0.21251   0.22510   0.23966   0.24381
 Alpha virt. eigenvalues --    0.25899   0.27127   0.29007   0.29966   0.31655
 Alpha virt. eigenvalues --    0.33059   0.33773   0.36076   0.36591   0.38846
 Alpha virt. eigenvalues --    0.45974   0.58856   0.61634   0.67363   0.72597
 Alpha virt. eigenvalues --    0.73421   0.74761   0.78092   0.78525   0.85926
 Alpha virt. eigenvalues --    0.90259   0.93373   0.94973   0.96694   1.01052
 Alpha virt. eigenvalues --    1.03148   1.05672   1.08418   1.11747   1.12414
 Alpha virt. eigenvalues --    1.17547   1.19101   1.22197   1.23203   1.24702
 Alpha virt. eigenvalues --    1.25245   1.26130   1.32964   1.36219   1.44994
 Alpha virt. eigenvalues --    1.45845   1.48131   1.55321   1.57241   1.60346
 Alpha virt. eigenvalues --    1.60416   1.66814   1.77496   1.81256   1.81982
 Alpha virt. eigenvalues --    1.83580   1.86009   1.89429   1.91899   2.03243
 Alpha virt. eigenvalues --    2.11428   2.12645   2.21805   2.23177   2.30809
 Alpha virt. eigenvalues --    2.32277   2.38723   2.47765   2.51545   2.61079
 Alpha virt. eigenvalues --    2.69996   2.71950   2.78863   2.87019   3.13221
 Alpha virt. eigenvalues --    3.17054   3.89506   4.14329   4.18021   4.21675
 Alpha virt. eigenvalues --    4.27250   4.37299
          Condensed to atoms (all electrons):
               1          2          3          4          5          6
     1  C    5.065342   0.624625  -0.005583   0.017311  -0.000623  -0.007224
     2  C    0.624625   5.067396  -0.002584  -0.008336  -0.007448   0.001813
     3  C   -0.005583  -0.002584   4.744332   0.098510   0.005101   0.469940
     4  O    0.017311  -0.008336   0.098510   8.174170   0.037534  -0.073260
     5  O   -0.000623  -0.007448   0.005101   0.037534   8.239207   0.003351
     6  O   -0.007224   0.001813   0.469940  -0.073260   0.003351   8.043507
     7  H    0.000007  -0.000017   0.003943  -0.026411   0.188305  -0.000469
     8  H    0.380339  -0.035462  -0.000189  -0.000049   0.000096  -0.000015
     9  H    0.381944  -0.036002   0.000353   0.000503   0.000009  -0.000036
    10  H   -0.001499   0.001058   0.399526  -0.116301   0.021105  -0.053027
    11  H   -0.038687   0.386371  -0.000077   0.000085  -0.000024   0.000292
    12  H   -0.040414   0.385106  -0.000099  -0.000057   0.000033   0.000101
               7          8          9         10         11         12
     1  C    0.000007   0.380339   0.381944  -0.001499  -0.038687  -0.040414
     2  C   -0.000017  -0.035462  -0.036002   0.001058   0.386371   0.385106
     3  C    0.003943  -0.000189   0.000353   0.399526  -0.000077  -0.000099
     4  O   -0.026411  -0.000049   0.000503  -0.116301   0.000085  -0.000057
     5  O    0.188305   0.000096   0.000009   0.021105  -0.000024   0.000033
     6  O   -0.000469  -0.000015  -0.000036  -0.053027   0.000292   0.000101
     7  H    0.351820   0.000001   0.000005  -0.000245  -0.000000   0.000000
     8  H    0.000001   0.509690  -0.033771   0.000002   0.003989  -0.006974
     9  H    0.000005  -0.033771   0.496285   0.000009  -0.006452   0.004067
    10  H   -0.000245   0.000002   0.000009   0.550452  -0.000011   0.000003
    11  H   -0.000000   0.003989  -0.006452  -0.000011   0.487226  -0.033106
    12  H    0.000000  -0.006974   0.004067   0.000003  -0.033106   0.508600
 Mulliken charges:
               1
     1  C   -0.375537
     2  C   -0.376520
     3  C    0.286826
     4  O   -0.103699
     5  O   -0.486647
     6  O   -0.384972
     7  H    0.483062
     8  H    0.182342
     9  H    0.193085
    10  H    0.198928
    11  H    0.200394
    12  H    0.182740
 Sum of Mulliken charges =  -0.00000
 Mulliken charges with hydrogens summed into heavy atoms:
               1
     1  C   -0.000111
     2  C    0.006614
     3  C    0.485754
     4  O   -0.103699
     5  O   -0.003586
     6  O   -0.384972
 APT charges:
               1
     1  C   -0.855056
     2  C   -0.774745
     3  C   -0.125088
     4  O   -0.040613
     5  O   -0.847642
     6  O   -0.212287
     7  H    0.841452
     8  H    0.597121
     9  H    0.171204
    10  H    0.378628
    11  H    0.223160
    12  H    0.643867
 Sum of APT charges =  -0.00000
 APT charges with hydrogens summed into heavy atoms:
               1
     1  C   -0.086731
     2  C    0.092283
     3  C    0.253540
     4  O   -0.040613
     5  O   -0.006190
     6  O   -0.212287
 Electronic spatial extent (au):  <R**2>=            872.2607
 Charge=             -0.0000 electrons
 Dipole moment (field-independent basis, Debye):
    X=             -0.0996    Y=              3.1748    Z=              0.6479  Tot=              3.2418
 Quadrupole moment (field-independent basis, Debye-Ang):
   XX=            -33.8229   YY=            -33.9691   ZZ=            -37.5549
   XY=              5.0057   XZ=              0.7686   YZ=              4.7270
 Traceless Quadrupole moment (field-independent basis, Debye-Ang):
   XX=              1.2927   YY=              1.1465   ZZ=             -2.4393
   XY=              5.0057   XZ=              0.7686   YZ=              4.7270
 Octapole moment (field-independent basis, Debye-Ang**2):
  XXX=             12.8611  YYY=             29.1484  ZZZ=             27.9617  XYY=             15.5425
  XXY=              9.0775  XXZ=              5.3245  XZZ=              4.4634  YZZ=             18.0176
  YYZ=             10.6941  XYZ=              5.9189
 Hexadecapole moment (field-independent basis, Debye-Ang**3):
 XXXX=           -227.2490 YYYY=           -312.3484 ZZZZ=           -569.3898 XXXY=            -61.7074
 XXXZ=           -114.4467 YYYX=            -39.9042 YYYZ=            -32.9817 ZZZX=           -129.8217
 ZZZY=            -73.0327 XXYY=            -77.3388 XXZZ=           -119.3150 YYZZ=           -161.1842
 XXYZ=             -9.4603 YYXZ=            -29.9934 ZZXY=            -27.8453
 N-N= 2.181705782485D+02 E-N=-1.240558896266D+03  KE= 3.403000993853D+02
  Exact polarizability:   0.000   0.000   0.000   0.000   0.000   0.000
 Approx polarizability:  60.395   5.702 103.124  -3.487 -19.525  54.275

 This type of calculation cannot be archived.


 KNOWING HOW CONTENTED, FREE, AND JOYFUL IS LIFE IN
 THE REALMS OF SCIENCE, ONE FERVENTLY WISHES THAT
 MANY WOULD ENTER HER PORTALS.
   --  DMITRI IVANOVICH MENDELEEV
 "FIRST PRINCIPLES OF CHEMISTRY", LONGMANS, GREEN,
 AND CO.  LONDON, 1891
 Job cpu time:       0 days  9 hours 43 minutes 55.8 seconds.
 Elapsed time:       0 days  0 hours 38 minutes 39.3 seconds.
 File lengths (MBytes):  RWF=    172 Int=      0 D2E=      0 Chk=      6 Scr=      4
 Normal termination of Gaussian 16 at Tue Jul 21 19:24:58 2020.
