 Entering Gaussian System, Link 0=g16
 Initial command:
 /apps/cent7/gaussian/g16-B.01/g16-haswell/g16/l1.exe "/scratch/bell/zhao922/YARP/paper-example/KHP-network/pp_0/IRC-folder/Gau-53338.inp" -scrdir="/scratch/bell/zhao922/YARP/paper-example/KHP-network/pp_0/IRC-folder/"
 Entering Link 1 = /apps/cent7/gaussian/g16-B.01/g16-haswell/g16/l1.exe PID=     53339.
  
 Copyright (c) 1988-2017, Gaussian, Inc.  All Rights Reserved.
  
 This is part of the Gaussian(R) 16 program.  It is based on
 the Gaussian(R) 09 system (copyright 2009, Gaussian, Inc.),
 the Gaussian(R) 03 system (copyright 2003, Gaussian, Inc.),
 the Gaussian(R) 98 system (copyright 1998, Gaussian, Inc.),
 the Gaussian(R) 94 system (copyright 1995, Gaussian, Inc.),
 the Gaussian 92(TM) system (copyright 1992, Gaussian, Inc.),
 the Gaussian 90(TM) system (copyright 1990, Gaussian, Inc.),
 the Gaussian 88(TM) system (copyright 1988, Gaussian, Inc.),
 the Gaussian 86(TM) system (copyright 1986, Carnegie Mellon
 University), and the Gaussian 82(TM) system (copyright 1983,
 Carnegie Mellon University). Gaussian is a federally registered
 trademark of Gaussian, Inc.
  
 This software contains proprietary and confidential information,
 including trade secrets, belonging to Gaussian, Inc.
  
 This software is provided under written license and may be
 used, copied, transmitted, or stored only in accord with that
 written license.
  
 The following legend is applicable only to US Government
 contracts under FAR:
  
                    RESTRICTED RIGHTS LEGEND
  
 Use, reproduction and disclosure by the US Government is
 subject to restrictions as set forth in subparagraphs (a)
 and (c) of the Commercial Computer Software - Restricted
 Rights clause in FAR 52.227-19.
  
 Gaussian, Inc.
 340 Quinnipiac St., Bldg. 40, Wallingford CT 06492
  
  
 ---------------------------------------------------------------
 Warning -- This program may not be used in any manner that
 competes with the business of Gaussian, Inc. or will provide
 assistance to any competitor of Gaussian, Inc.  The licensee
 of this program is prohibited from giving any competitor of
 Gaussian, Inc. access to this program.  By using this program,
 the user acknowledges that Gaussian, Inc. is engaged in the
 business of creating and licensing software in the field of
 computational chemistry and represents and warrants to the
 licensee that it is not a competitor of Gaussian, Inc. and that
 it will not use this program in any manner prohibited above.
 ---------------------------------------------------------------
  

 Cite this work as:
 Gaussian 16, Revision B.01,
 M. J. Frisch, G. W. Trucks, H. B. Schlegel, G. E. Scuseria, 
 M. A. Robb, J. R. Cheeseman, G. Scalmani, V. Barone, 
 G. A. Petersson, H. Nakatsuji, X. Li, M. Caricato, A. V. Marenich, 
 J. Bloino, B. G. Janesko, R. Gomperts, B. Mennucci, H. P. Hratchian, 
 J. V. Ortiz, A. F. Izmaylov, J. L. Sonnenberg, D. Williams-Young, 
 F. Ding, F. Lipparini, F. Egidi, J. Goings, B. Peng, A. Petrone, 
 T. Henderson, D. Ranasinghe, V. G. Zakrzewski, J. Gao, N. Rega, 
 G. Zheng, W. Liang, M. Hada, M. Ehara, K. Toyota, R. Fukuda, 
 J. Hasegawa, M. Ishida, T. Nakajima, Y. Honda, O. Kitao, H. Nakai, 
 T. Vreven, K. Throssell, J. A. Montgomery, Jr., J. E. Peralta, 
 F. Ogliaro, M. J. Bearpark, J. J. Heyd, E. N. Brothers, K. N. Kudin, 
 V. N. Staroverov, T. A. Keith, R. Kobayashi, J. Normand, 
 K. Raghavachari, A. P. Rendell, J. C. Burant, S. S. Iyengar, 
 J. Tomasi, M. Cossi, J. M. Millam, M. Klene, C. Adamo, R. Cammi, 
 J. W. Ochterski, R. L. Martin, K. Morokuma, O. Farkas, 
 J. B. Foresman, and D. J. Fox, Gaussian, Inc., Wallingford CT, 2016.
 
 ******************************************
 Gaussian 16:  ES64L-G16RevB.01 20-Dec-2017
                23-Dec-2020 
 ******************************************
 %NProcShared=16
 Will use up to   16 processors via shared memory.
 %Mem=6GB
 ----------------------------------------------------------------------
 # B3LYP/6-31+G* IRC=(CALCALL, maxpoints=40, StepSize=15, maxcyc=100, R
 eport=Cartesians)
 ----------------------------------------------------------------------
 1/6=100,10=4,18=10,26=3,38=1,39=15,42=40,44=3,71=1,129=10,172=1/1,23;
 2/12=2,17=6,18=5,29=1,40=1/2;
 3/5=1,6=6,7=11,11=2,25=1,30=1,71=2,74=-5,140=1/1,2,3;
 4//1;
 5/5=2,38=5/2;
 8/6=4,10=90,11=11/1;
 11/6=1,8=1,9=11,15=111,16=1/1,2,10;
 10/6=1,13=1/2;
 6/7=2,8=2,9=2,10=2,18=1,28=1/1;
 7/10=1,25=1/1,2,3,16;
 1/6=100,10=4,18=10,26=3,39=15,42=40,44=3,71=1,129=10/23(2);
 2/29=1/2;
 99/5=20/99;
 2/29=1/2;
 3/5=1,6=6,7=11,11=2,25=1,30=1,71=2,74=-5,140=1/1,2,3;
 4/5=5,16=3,69=1/1;
 5/5=2,38=5/2;
 8/6=4,10=90,11=11/1;
 11/6=1,8=1,9=11,15=111,16=1/1,2,10;
 10/6=1,13=1/2;
 7/10=1,25=1/1,2,3,16;
 1/6=100,10=4,18=10,26=3,39=15,42=40,44=3,71=1,129=10/23(-8);
 2/29=1/2;
 6/7=2,8=2,9=2,10=2,18=1,19=2,28=1/1;
 99/5=20/99;
 ----------
 pp_8_0 IRC
 ----------
 Symbolic Z-matrix:
 Charge =  0 Multiplicity = 1
 C                     0.44997   1.00974   0.2747 
 C                    -0.72974   0.49965  -0.40732 
 C                    -1.77813  -0.18556   0.34019 
 O                     1.27294  -0.27244  -0.11504 
 O                     2.86273  -0.42978  -0.06639 
 O                    -2.87166  -0.4981   -0.10929 
 H                     2.90635  -1.08065   0.66005 
 H                     0.97171   1.85683  -0.1668 
 H                     0.43933   1.03579   1.36431 
 H                    -1.51592  -0.43382   1.39463 
 H                     0.41492  -0.60457  -0.77832 
 H                    -0.98109   0.88601  -1.39344 
 
 IRC-IRC-IRC-IRC-IRC-IRC-IRC-IRC-IRC-IRC-IRC-IRC-IRC-IRC-IRC-IRC-IRC-IRC
 ------------------------------------------------------------------------
 INPUT DATA FOR L123
 ------------------------------------------------------------------------
 GENERAL PARAMETERS:
 Follow reaction path in both directions.
 Maximum points per path      =  40
 Step size                    =   0.150 bohr
 Integration scheme           = HPC                                 
    Redo corrector integration= Yes                                 
    DWI Weight Power          =  2
    DWI will use Hessian update vectors when possible.
    Max correction cycles     = 100
 Initial Hessian              = CalcFC
 Hessian evaluation           = Analytic at all predictor steps
                              = Update at all corrector steps
 Hessian updating method      = Bofill                              
 ------------------------------------------------------------------------
 IRC-IRC-IRC-IRC-IRC-IRC-IRC-IRC-IRC-IRC-IRC-IRC-IRC-IRC-IRC-IRC-IRC-IRC
                          Input orientation:                          
 ---------------------------------------------------------------------
 Center     Atomic      Atomic             Coordinates (Angstroms)
 Number     Number       Type             X           Y           Z
 ---------------------------------------------------------------------
      1          6           0        0.449973    1.009741    0.274703
      2          6           0       -0.729735    0.499651   -0.407321
      3          6           0       -1.778134   -0.185561    0.340186
      4          8           0        1.272943   -0.272443   -0.115044
      5          8           0        2.862731   -0.429783   -0.066394
      6          8           0       -2.871664   -0.498097   -0.109290
      7          1           0        2.906349   -1.080648    0.660047
      8          1           0        0.971709    1.856829   -0.166801
      9          1           0        0.439329    1.035794    1.364307
     10          1           0       -1.515920   -0.433824    1.394625
     11          1           0        0.414921   -0.604572   -0.778320
     12          1           0       -0.981093    0.886012   -1.393438
 ---------------------------------------------------------------------
                    Distance matrix (angstroms):
                    1          2          3          4          5
     1  C    0.000000
     2  C    1.455012   0.000000
     3  C    2.529327   1.458569   0.000000
     4  O    1.572634   2.166166   3.086074   0.000000
     5  O    2.830190   3.726378   4.665038   1.598296   0.000000
     6  O    3.668010   2.381635   1.222913   4.150749   5.734962
     7  H    3.248384   4.105816   4.779945   1.980398   0.976342
     8  H    1.088436   2.189679   3.462662   2.151097   2.968946
     9  H    1.089967   2.189252   2.730874   2.143566   3.172964
    10  H    2.683811   2.176344   1.114555   3.175358   4.615970
    11  H    1.927717   1.633152   2.497222   1.134216   2.555223
    12  H    2.201353   1.088523   2.188377   2.838483   4.274031
                    6          7          8          9         10
     6  O    0.000000
     7  H    5.858044   0.000000
     8  H    4.507827   3.613209   0.000000
     9  H    3.935351   3.325883   1.817091   0.000000
    10  H    2.025817   4.529288   3.724707   2.446159   0.000000
    11  H    3.355679   2.915949   2.596625   2.698564   2.911871
    12  H    2.671901   4.816301   2.502111   3.105671   3.130703
                   11         12
    11  H    0.000000
    12  H    2.132854   0.000000
 Symmetry turned off by external request.
 Stoichiometry    C3H6O3
 Framework group  C1[X(C3H6O3)]
 Deg. of freedom    30
 Full point group                 C1      NOp   1
 Rotational constants (GHZ):          11.9158523           1.4026620           1.3313996
 Standard basis: 6-31+G(d) (6D, 7F)
   126 basis functions,   216 primitive gaussians,   126 cartesian basis functions
    24 alpha electrons       24 beta electrons
       nuclear repulsion energy       227.7489016369 Hartrees.
 NAtoms=   12 NActive=   12 NUniq=   12 SFac= 1.00D+00 NAtFMM=   60 NAOKFM=F Big=F
 Integral buffers will be    131072 words long.
 Raffenetti 2 integral format.
 Two-electron integral symmetry is turned off.
 One-electron integrals computed using PRISM.
 NBasis=   126 RedAO= T EigKep=  1.02D-04  NBF=   126
 NBsUse=   126 1.00D-06 EigRej= -1.00D+00 NBFU=   126
 ExpMin= 4.38D-02 ExpMax= 5.48D+03 ExpMxC= 8.25D+02 IAcc=3 IRadAn=         5 AccDes= 0.00D+00
 Harris functional with IExCor=  402 and IRadAn=       5 diagonalized for initial guess.
 HarFok:  IExCor=  402 AccDes= 0.00D+00 IRadAn=         5 IDoV= 1 UseB2=F ITyADJ=14
 ICtDFT=  3500011 ScaDFX=  1.000000  1.000000  1.000000  1.000000
 FoFCou: FMM=F IPFlag=           0 FMFlag=      100000 FMFlg1=           0
         NFxFlg=           0 DoJE=T BraDBF=F KetDBF=T FulRan=T
         wScrn=  0.000000 ICntrl=       500 IOpCl=  0 I1Cent=   200000004 NGrid=           0
         NMat0=    1 NMatS0=      1 NMatT0=    0 NMatD0=    1 NMtDS0=    0 NMtDT0=    0
 Symmetry not used in FoFCou.
 Keep R1 ints in memory in canonical form, NReq=47237243.
 Requested convergence on RMS density matrix=1.00D-08 within 128 cycles.
 Requested convergence on MAX density matrix=1.00D-06.
 Requested convergence on             energy=1.00D-06.
 No special actions if energy rises.
 EnCoef did     1 forward-backward iterations
 SCF Done:  E(RB3LYP) =  -343.409028702     A.U. after   15 cycles
            NFock= 15  Conv=0.27D-08     -V/T= 2.0092
 DoSCS=F DFT=T ScalE2(SS,OS)=  1.000000  1.000000
 Range of M.O.s used for correlation:     1   126
 NBasis=   126 NAE=    24 NBE=    24 NFC=     0 NFV=     0
 NROrb=    126 NOA=    24 NOB=    24 NVA=   102 NVB=   102

 **** Warning!!: The largest alpha MO coefficient is  0.30909367D+02

 Symmetrizing basis deriv contribution to polar:
 IMax=3 JMax=2 DiffMx= 0.00D+00
 G2DrvN: will do    13 centers at a time, making    1 passes.
 Calling FoFCou, ICntrl=  3107 FMM=F I1Cent=   0 AccDes= 0.00D+00.
 End of G2Drv F.D. properties file   721 does not exist.
 End of G2Drv F.D. properties file   722 does not exist.
 End of G2Drv F.D. properties file   788 does not exist.
          IDoAtm=111111111111
          Differentiating once with respect to nuclear coordinates.
 Keep R1 ints in memory in canonical form, NReq=47193265.
          There are    39 degrees of freedom in the 1st order CPHF.  IDoFFX=6 NUNeed=     0.
     33 vectors produced by pass  0 Test12= 6.28D-15 2.56D-09 XBig12= 2.41D-01 2.29D-01.
 AX will form    33 AO Fock derivatives at one time.
     33 vectors produced by pass  1 Test12= 6.28D-15 2.56D-09 XBig12= 2.10D-02 4.51D-02.
     33 vectors produced by pass  2 Test12= 6.28D-15 2.56D-09 XBig12= 2.17D-04 2.96D-03.
     33 vectors produced by pass  3 Test12= 6.28D-15 2.56D-09 XBig12= 7.03D-07 1.62D-04.
     33 vectors produced by pass  4 Test12= 6.28D-15 2.56D-09 XBig12= 1.13D-09 5.25D-06.
     29 vectors produced by pass  5 Test12= 6.28D-15 2.56D-09 XBig12= 1.23D-12 1.82D-07.
      5 vectors produced by pass  6 Test12= 6.28D-15 2.56D-09 XBig12= 1.07D-15 4.54D-09.
 InvSVY:  IOpt=1 It=  1 EMax= 3.66D-15
 Solved reduced A of dimension   199 with    33 vectors.
 End of Minotr F.D. properties file   721 does not exist.
 End of Minotr F.D. properties file   722 does not exist.
 End of Minotr F.D. properties file   788 does not exist.

 **********************************************************************

            Population analysis using the SCF Density.

 **********************************************************************

 Alpha  occ. eigenvalues --  -19.27869 -19.22398 -19.14894 -10.28507 -10.28225
 Alpha  occ. eigenvalues --  -10.22223  -1.10983  -1.04114  -0.97929  -0.79724
 Alpha  occ. eigenvalues --   -0.68351  -0.60292  -0.56678  -0.51189  -0.49002
 Alpha  occ. eigenvalues --   -0.47903  -0.46645  -0.42600  -0.41404  -0.39473
 Alpha  occ. eigenvalues --   -0.35597  -0.33322  -0.26960  -0.25939
 Alpha virt. eigenvalues --   -0.10330  -0.01506   0.00237   0.00620   0.01642
 Alpha virt. eigenvalues --    0.01991   0.04172   0.05971   0.06376   0.07434
 Alpha virt. eigenvalues --    0.09428   0.09949   0.10839   0.11461   0.12501
 Alpha virt. eigenvalues --    0.14985   0.16646   0.17997   0.18703   0.20264
 Alpha virt. eigenvalues --    0.21455   0.21861   0.22727   0.24145   0.25310
 Alpha virt. eigenvalues --    0.26890   0.27589   0.28627   0.30328   0.31112
 Alpha virt. eigenvalues --    0.31695   0.32942   0.35763   0.38257   0.39044
 Alpha virt. eigenvalues --    0.44182   0.60783   0.63145   0.65475   0.71752
 Alpha virt. eigenvalues --    0.74310   0.77787   0.80285   0.82733   0.87158
 Alpha virt. eigenvalues --    0.89135   0.94074   0.97499   0.99254   1.02501
 Alpha virt. eigenvalues --    1.05968   1.08283   1.09194   1.10861   1.11868
 Alpha virt. eigenvalues --    1.19922   1.22235   1.24315   1.25193   1.28232
 Alpha virt. eigenvalues --    1.31079   1.31710   1.37289   1.42456   1.46703
 Alpha virt. eigenvalues --    1.50594   1.55188   1.60105   1.63384   1.69223
 Alpha virt. eigenvalues --    1.70310   1.73539   1.77262   1.79329   1.82471
 Alpha virt. eigenvalues --    1.83864   1.85755   1.92767   2.00966   2.03198
 Alpha virt. eigenvalues --    2.05077   2.09230   2.13069   2.21094   2.27362
 Alpha virt. eigenvalues --    2.34971   2.37587   2.43729   2.48456   2.50101
 Alpha virt. eigenvalues --    2.59722   2.74435   2.81050   2.97367   3.02359
 Alpha virt. eigenvalues --    3.10904   3.84603   4.10684   4.14495   4.23138
 Alpha virt. eigenvalues --    4.38982   4.50473
          Condensed to atoms (all electrons):
               1          2          3          4          5          6
     1  C    5.986272  -0.726811   0.195336   0.079879   0.023610   0.051948
     2  C   -0.726811   7.221159  -0.099447  -0.220986   0.062696  -0.218833
     3  C    0.195336  -0.099447   4.903667  -0.045780  -0.007169   0.473133
     4  O    0.079879  -0.220986  -0.045780   8.735304  -0.234058  -0.002745
     5  O    0.023610   0.062696  -0.007169  -0.234058   8.506737  -0.000420
     6  O    0.051948  -0.218833   0.473133  -0.002745  -0.000420   8.183708
     7  H    0.000911   0.000027  -0.000402   0.013448   0.154132   0.000006
     8  H    0.379421  -0.018781   0.001615  -0.050818   0.014118  -0.000179
     9  H    0.410300  -0.060002   0.006938  -0.043686  -0.002610   0.000451
    10  H    0.081697  -0.277096   0.459671   0.000393  -0.000012  -0.057236
    11  H   -0.131690   0.304048  -0.007861  -0.020001   0.037665  -0.004247
    12  H   -0.027214   0.344265  -0.008651   0.002746  -0.000832  -0.001903
               7          8          9         10         11         12
     1  C    0.000911   0.379421   0.410300   0.081697  -0.131690  -0.027214
     2  C    0.000027  -0.018781  -0.060002  -0.277096   0.304048   0.344265
     3  C   -0.000402   0.001615   0.006938   0.459671  -0.007861  -0.008651
     4  O    0.013448  -0.050818  -0.043686   0.000393  -0.020001   0.002746
     5  O    0.154132   0.014118  -0.002610  -0.000012   0.037665  -0.000832
     6  O    0.000006  -0.000179   0.000451  -0.057236  -0.004247  -0.001903
     7  H    0.377847  -0.000209   0.000333  -0.000005  -0.000396  -0.000002
     8  H   -0.000209   0.476405  -0.031251  -0.000036   0.003437  -0.003127
     9  H    0.000333  -0.031251   0.485165   0.003489   0.006070   0.002290
    10  H   -0.000005  -0.000036   0.003489   0.638358   0.000635   0.003187
    11  H   -0.000396   0.003437   0.006070   0.000635   0.409109  -0.002862
    12  H   -0.000002  -0.003127   0.002290   0.003187  -0.002862   0.455192
 Mulliken charges:
               1
     1  C   -0.323661
     2  C   -0.310238
     3  C    0.128949
     4  O   -0.213695
     5  O   -0.553858
     6  O   -0.423683
     7  H    0.454310
     8  H    0.229405
     9  H    0.222514
    10  H    0.146955
    11  H    0.406092
    12  H    0.236910
 Sum of Mulliken charges =  -0.00000
 Mulliken charges with hydrogens summed into heavy atoms:
               1
     1  C    0.128258
     2  C   -0.073328
     3  C    0.275904
     4  O    0.192397
     5  O   -0.099547
     6  O   -0.423683
 APT charges:
               1
     1  C   -0.988315
     2  C   -0.356277
     3  C   -0.537662
     4  O   -0.076221
     5  O   -0.831646
     6  O   -0.063002
     7  H    0.646340
     8  H    0.542705
     9  H    0.439266
    10  H    0.327379
    11  H    0.390411
    12  H    0.507022
 Sum of APT charges =  -0.00000
 APT charges with hydrogens summed into heavy atoms:
               1
     1  C   -0.006344
     2  C    0.150745
     3  C   -0.210283
     4  O    0.314190
     5  O   -0.185307
     6  O   -0.063002
 Electronic spatial extent (au):  <R**2>=            836.0723
 Charge=             -0.0000 electrons
 Dipole moment (field-independent basis, Debye):
    X=              3.0121    Y=              0.9356    Z=              1.6680  Tot=              3.5680
 Quadrupole moment (field-independent basis, Debye-Ang):
   XX=            -53.5498   YY=            -33.4295   ZZ=            -33.7167
   XY=             -4.6439   XZ=              2.3838   YZ=             -1.5730
 Traceless Quadrupole moment (field-independent basis, Debye-Ang):
   XX=            -13.3178   YY=              6.8025   ZZ=              6.5153
   XY=             -4.6439   XZ=              2.3838   YZ=             -1.5730
 Octapole moment (field-independent basis, Debye-Ang**2):
  XXX=             44.2498  YYY=             -3.4884  ZZZ=              1.1261  XYY=             11.2579
  XXY=             -1.0636  XXZ=             15.9765  XZZ=              4.2476  YZZ=             -0.8677
  YYZ=              0.8281  XYZ=             -3.7705
 Hexadecapole moment (field-independent basis, Debye-Ang**3):
 XXXX=           -993.7721 YYYY=           -114.9586 ZZZZ=            -73.4206 XXXY=            -60.0927
 XXXZ=             29.0689 YYYX=             -5.8607 YYYZ=             -3.1581 ZZZX=              3.6566
 ZZZY=             -1.9988 XXYY=           -147.5203 XXZZ=           -145.2767 YYZZ=            -30.3700
 XXYZ=            -16.9371 YYXZ=              5.6312 ZZXY=             -4.1378
 N-N= 2.277489016369D+02 E-N=-1.259753668306D+03  KE= 3.402718473618D+02
  Exact polarizability:   0.000   0.000   0.000   0.000   0.000   0.000
 Approx polarizability: 248.428 -17.211  65.399  14.671  -0.100  64.674
 Calling FoFJK, ICntrl=    100127 FMM=F ISym2X=0 I1Cent= 0 IOpClX= 0 NMat=1 NMatS=1 NMatT=0.
 -------------------------------------------------------------------
 Center     Atomic                   Forces (Hartrees/Bohr)
 Number     Number              X              Y              Z
 -------------------------------------------------------------------
      1        6          -0.000003466    0.000004397    0.000000037
      2        6           0.000000557    0.000000797   -0.000000004
      3        6           0.000000275    0.000000305    0.000000025
      4        8           0.000001796   -0.000004391   -0.000001469
      5        8           0.000000102   -0.000000923    0.000000763
      6        8          -0.000000412    0.000000642   -0.000000375
      7        1          -0.000000092   -0.000000441    0.000000671
      8        1           0.000000462   -0.000000652   -0.000000296
      9        1           0.000000223   -0.000000088   -0.000000004
     10        1          -0.000000426    0.000000829   -0.000000083
     11        1           0.000000768   -0.000000200    0.000001306
     12        1           0.000000213   -0.000000276   -0.000000569
 -------------------------------------------------------------------
 Cartesian Forces:  Max     0.000004397 RMS     0.000001337
 IRC-IRC-IRC-IRC-IRC-IRC-IRC-IRC-IRC-IRC-IRC-IRC-IRC-IRC-IRC-IRC-IRC-IRC
          ******** Start new reaction path calculation ********
 Supplied step size of   0.1500 bohr.
    Integration on MW PES will use step size of   0.1625 sqrt(amu)*bohr.
 Point Number:   0          Path Number:   1
 Calculating another point on the path.
 IRC-IRC-IRC-IRC-IRC-IRC-IRC-IRC-IRC-IRC-IRC-IRC-IRC-IRC-IRC-IRC-IRC-IRC
                          Input orientation:                          
 ---------------------------------------------------------------------
 Center     Atomic      Atomic             Coordinates (Angstroms)
 Number     Number       Type             X           Y           Z
 ---------------------------------------------------------------------
      1          6           0        0.478863    1.027523    0.287742
      2          6           0       -0.701558    0.512897   -0.398493
      3          6           0       -1.754398   -0.167676    0.352479
      4          8           0        1.300548   -0.254078   -0.103593
      5          8           0        2.884363   -0.410055   -0.053605
      6          8           0       -2.846721   -0.479641   -0.097270
      7          1           0        2.929824   -1.061562    0.672089
      8          1           0        0.995388    1.877601   -0.153962
      9          1           0        0.463157    1.057372    1.377288
     10          1           0       -1.491527   -0.416367    1.406505
     11          1           0        0.365769   -0.560812   -0.763201
     12          1           0       -0.959734    0.911258   -1.378348
 ---------------------------------------------------------------------
                    Distance matrix (angstroms):
                    1          2          3          4          5
     1  C    0.000000
     2  C    1.459161   0.000000
     3  C    2.533801   1.461373   0.000000
     4  O    1.571881   2.164173   3.090010   0.000000
     5  O    2.823045   3.718819   4.662806   1.592262   0.000000
     6  O    3.671415   2.382771   1.221788   4.153404   5.731673
     7  H    3.243333   4.100244   4.779448   1.976930   0.976299
     8  H    1.088363   2.191309   3.464241   2.154000   2.968446
     9  H    1.090067   2.192352   2.732861   2.148053   3.172229
    10  H    2.686798   2.178439   1.114414   3.178430   4.613066
    11  H    1.907900   1.557257   2.427840   1.184475   2.620986
    12  H    2.204299   1.088789   2.188915   2.844623   4.275265
                    6          7          8          9         10
     6  O    0.000000
     7  H    5.856536   0.000000
     8  H    4.507950   3.614289   0.000000
     9  H    3.935991   3.327407   1.816803   0.000000
    10  H    2.025313   4.528133   3.725868   2.448173   0.000000
    11  H    3.281790   2.980803   2.591033   2.685088   2.859727
    12  H    2.671420   4.819229   2.501088   3.104753   3.130622
                   11         12
    11  H    0.000000
    12  H    2.074211   0.000000
 Symmetry turned off by external request.
 Stoichiometry    C3H6O3
 Framework group  C1[X(C3H6O3)]
 Deg. of freedom    30
 Full point group                 C1      NOp   1
 Rotational constants (GHZ):          11.9352795           1.4033838           1.3325084
 Standard basis: 6-31+G(d) (6D, 7F)
   126 basis functions,   216 primitive gaussians,   126 cartesian basis functions
    24 alpha electrons       24 beta electrons
       nuclear repulsion energy       227.7780013346 Hartrees.
 NAtoms=   12 NActive=   12 NUniq=   12 SFac= 1.00D+00 NAtFMM=   60 NAOKFM=F Big=F
 Integral buffers will be    131072 words long.
 Raffenetti 2 integral format.
 Two-electron integral symmetry is turned off.
 One-electron integrals computed using PRISM.
 NBasis=   126 RedAO= T EigKep=  1.03D-04  NBF=   126
 NBsUse=   126 1.00D-06 EigRej= -1.00D+00 NBFU=   126
 Initial guess from the checkpoint file:  "/scratch/bell/zhao922/YARP/paper-example/KHP-network/pp_0/IRC-folder/Gau-53339.chk"
 B after Tr=     0.045111    0.035187    0.022637
         Rot=    1.000000   -0.000262   -0.000078    0.000036 Ang=  -0.03 deg.
 ExpMin= 4.38D-02 ExpMax= 5.48D+03 ExpMxC= 8.25D+02 IAcc=3 IRadAn=         5 AccDes= 0.00D+00
 Harris functional with IExCor=  402 and IRadAn=       5 diagonalized for initial guess.
 HarFok:  IExCor=  402 AccDes= 0.00D+00 IRadAn=         5 IDoV= 1 UseB2=F ITyADJ=14
 ICtDFT=  3500011 ScaDFX=  1.000000  1.000000  1.000000  1.000000
 FoFCou: FMM=F IPFlag=           0 FMFlag=      100000 FMFlg1=           0
         NFxFlg=           0 DoJE=T BraDBF=F KetDBF=T FulRan=T
         wScrn=  0.000000 ICntrl=       500 IOpCl=  0 I1Cent=   200000004 NGrid=           0
         NMat0=    1 NMatS0=      1 NMatT0=    0 NMatD0=    1 NMtDS0=    0 NMtDT0=    0
 Symmetry not used in FoFCou.
 Keep R1 ints in memory in canonical form, NReq=47237243.
 Requested convergence on RMS density matrix=1.00D-08 within 128 cycles.
 Requested convergence on MAX density matrix=1.00D-06.
 Requested convergence on             energy=1.00D-06.
 No special actions if energy rises.
 SCF Done:  E(RB3LYP) =  -343.409883046     A.U. after   13 cycles
            NFock= 13  Conv=0.26D-08     -V/T= 2.0093
 DoSCS=F DFT=T ScalE2(SS,OS)=  1.000000  1.000000
 Range of M.O.s used for correlation:     1   126
 NBasis=   126 NAE=    24 NBE=    24 NFC=     0 NFV=     0
 NROrb=    126 NOA=    24 NOB=    24 NVA=   102 NVB=   102

 **** Warning!!: The largest alpha MO coefficient is  0.31729730D+02

 Symmetrizing basis deriv contribution to polar:
 IMax=3 JMax=2 DiffMx= 0.00D+00
 G2DrvN: will do    13 centers at a time, making    1 passes.
 Calling FoFCou, ICntrl=  3107 FMM=F I1Cent=   0 AccDes= 0.00D+00.
 End of G2Drv F.D. properties file   721 does not exist.
 End of G2Drv F.D. properties file   722 does not exist.
 End of G2Drv F.D. properties file   788 does not exist.
          IDoAtm=111111111111
          Differentiating once with respect to nuclear coordinates.
 Keep R1 ints in memory in canonical form, NReq=47193265.
          There are    39 degrees of freedom in the 1st order CPHF.  IDoFFX=6 NUNeed=     0.
     33 vectors produced by pass  0 Test12= 6.28D-15 2.56D-09 XBig12= 2.19D-01 2.25D-01.
 AX will form    33 AO Fock derivatives at one time.
     33 vectors produced by pass  1 Test12= 6.28D-15 2.56D-09 XBig12= 1.74D-02 4.62D-02.
     33 vectors produced by pass  2 Test12= 6.28D-15 2.56D-09 XBig12= 1.97D-04 2.36D-03.
     33 vectors produced by pass  3 Test12= 6.28D-15 2.56D-09 XBig12= 6.02D-07 1.41D-04.
     33 vectors produced by pass  4 Test12= 6.28D-15 2.56D-09 XBig12= 1.17D-09 4.79D-06.
     29 vectors produced by pass  5 Test12= 6.28D-15 2.56D-09 XBig12= 1.33D-12 1.81D-07.
      5 vectors produced by pass  6 Test12= 6.28D-15 2.56D-09 XBig12= 1.27D-15 4.66D-09.
 InvSVY:  IOpt=1 It=  1 EMax= 1.33D-15
 Solved reduced A of dimension   199 with    33 vectors.
 End of Minotr F.D. properties file   721 does not exist.
 End of Minotr F.D. properties file   722 does not exist.
 End of Minotr F.D. properties file   788 does not exist.
 Calling FoFJK, ICntrl=    100127 FMM=F ISym2X=0 I1Cent= 0 IOpClX= 0 NMat=1 NMatS=1 NMatT=0.
 -------------------------------------------------------------------
 Center     Atomic                   Forces (Hartrees/Bohr)
 Number     Number              X              Y              Z
 -------------------------------------------------------------------
      1        6           0.005627785   -0.000748242    0.001357947
      2        6           0.004774267   -0.006929250   -0.004349590
      3        6          -0.001473938   -0.000395992    0.000626838
      4        8           0.006917984    0.000544550    0.000412263
      5        8          -0.005617085    0.002706773    0.001576119
      6        8           0.000479511    0.000405959    0.000239993
      7        1          -0.000143799    0.000123861    0.000022169
      8        1          -0.000125090    0.000275345    0.000101462
      9        1          -0.000087219    0.000348714    0.000114319
     10        1          -0.000037877   -0.000097356   -0.000002675
     11        1          -0.009916660    0.002968468   -0.000533402
     12        1          -0.000397879    0.000797171    0.000434556
 -------------------------------------------------------------------
 Cartesian Forces:  Max     0.009916660 RMS     0.003006361
 IRC-IRC-IRC-IRC-IRC-IRC-IRC-IRC-IRC-IRC-IRC-IRC-IRC-IRC-IRC-IRC-IRC-IRC
 Pt  1 Step number   1 out of a maximum of 100
 Modified Bulirsch-Stoer Extrapolation Cycles:
    EPS =    0.000010000000000
      PEZero:  N= 2 I= 1 D=  4.23D-04 Err=  1.12D-03
      PEZero:  N= 3 I= 2 D=  4.23D-04 Err=  7.45D-04
      PEZero:  N= 3 I= 1 D=  8.47D-04 Err=  1.45D-07
 Maximum DWI energy   std dev =  0.000014244 at pt    43
 Maximum DWI gradient std dev =  0.031151063 at pt    34
 CORRECTOR INTEGRATION CONVERGENCE:
   Recorrection delta-x convergence threshold:    0.010000
   Delta-x Convergence Met
 Point Number:   1          Path Number:   1
   CHANGE IN THE REACTION COORDINATE =    0.16248
   NET REACTION COORDINATE UP TO THIS POINT =    0.16248
  # OF POINTS ALONG THE PATH =   1
  # OF STEPS =   1

 Calculating another point on the path.
 IRC-IRC-IRC-IRC-IRC-IRC-IRC-IRC-IRC-IRC-IRC-IRC-IRC-IRC-IRC-IRC-IRC-IRC
                          Input orientation:                          
 ---------------------------------------------------------------------
 Center     Atomic      Atomic             Coordinates (Angstroms)
 Number     Number       Type             X           Y           Z
 ---------------------------------------------------------------------
      1          6           0        0.482365    1.027001    0.288537
      2          6           0       -0.698587    0.508511   -0.401320
      3          6           0       -1.755402   -0.167923    0.352902
      4          8           0        1.304015   -0.253931   -0.103315
      5          8           0        2.881733   -0.408792   -0.052883
      6          8           0       -2.846481   -0.479462   -0.097155
      7          1           0        2.928881   -1.060613    0.672318
      8          1           0        0.994272    1.879724   -0.153272
      9          1           0        0.462289    1.060042    1.378049
     10          1           0       -1.491814   -0.417098    1.406468
     11          1           0        0.290143   -0.536099   -0.766481
     12          1           0       -0.963135    0.917711   -1.375230
 ---------------------------------------------------------------------
                    Distance matrix (angstroms):
                    1          2          3          4          5
     1  C    0.000000
     2  C    1.462663   0.000000
     3  C    2.537634   1.463991   0.000000
     4  O    1.571447   2.163456   3.094441   0.000000
     5  O    2.816919   3.712350   4.661083   1.586101   0.000000
     6  O    3.674153   2.383706   1.220681   4.156624   5.728820
     7  H    3.238960   4.095531   4.779271   1.972950   0.976222
     8  H    1.088292   2.192607   3.465512   2.156600   2.968146
     9  H    1.090198   2.194989   2.734406   2.151620   3.171553
    10  H    2.689345   2.180381   1.114257   3.181624   4.610607
    11  H    1.895598   1.483961   2.360683   1.243923   2.691053
    12  H    2.206702   1.089004   2.189230   2.851400   4.276823
                    6          7          8          9         10
     6  O    0.000000
     7  H    5.855308   0.000000
     8  H    4.507803   3.615231   0.000000
     9  H    3.936275   3.328560   1.816543   0.000000
    10  H    2.024820   4.527211   3.726769   2.449749   0.000000
    11  H    3.207743   3.050933   2.589985   2.678863   2.812693
    12  H    2.670685   4.822241   2.500018   3.103649   3.130345
                   11         12
    11  H    0.000000
    12  H    2.013664   0.000000
 Symmetry turned off by external request.
 Stoichiometry    C3H6O3
 Framework group  C1[X(C3H6O3)]
 Deg. of freedom    30
 Full point group                 C1      NOp   1
 Rotational constants (GHZ):          11.9517684           1.4037845           1.3333160
 Standard basis: 6-31+G(d) (6D, 7F)
   126 basis functions,   216 primitive gaussians,   126 cartesian basis functions
    24 alpha electrons       24 beta electrons
       nuclear repulsion energy       227.7935166291 Hartrees.
 NAtoms=   12 NActive=   12 NUniq=   12 SFac= 1.00D+00 NAtFMM=   60 NAOKFM=F Big=F
 Integral buffers will be    131072 words long.
 Raffenetti 2 integral format.
 Two-electron integral symmetry is turned off.
 One-electron integrals computed using PRISM.
 NBasis=   126 RedAO= T EigKep=  1.04D-04  NBF=   126
 NBsUse=   126 1.00D-06 EigRej= -1.00D+00 NBFU=   126
 Initial guess from the checkpoint file:  "/scratch/bell/zhao922/YARP/paper-example/KHP-network/pp_0/IRC-folder/Gau-53339.chk"
 B after Tr=    -0.001612    0.000723    0.000017
         Rot=    1.000000   -0.000280   -0.000083    0.000037 Ang=  -0.03 deg.
 ExpMin= 4.38D-02 ExpMax= 5.48D+03 ExpMxC= 8.25D+02 IAcc=3 IRadAn=         5 AccDes= 0.00D+00
 Harris functional with IExCor=  402 and IRadAn=       5 diagonalized for initial guess.
 HarFok:  IExCor=  402 AccDes= 0.00D+00 IRadAn=         5 IDoV= 1 UseB2=F ITyADJ=14
 ICtDFT=  3500011 ScaDFX=  1.000000  1.000000  1.000000  1.000000
 FoFCou: FMM=F IPFlag=           0 FMFlag=      100000 FMFlg1=           0
         NFxFlg=           0 DoJE=T BraDBF=F KetDBF=T FulRan=T
         wScrn=  0.000000 ICntrl=       500 IOpCl=  0 I1Cent=   200000004 NGrid=           0
         NMat0=    1 NMatS0=      1 NMatT0=    0 NMatD0=    1 NMtDS0=    0 NMtDT0=    0
 Symmetry not used in FoFCou.
 Keep R1 ints in memory in canonical form, NReq=47237243.
 Requested convergence on RMS density matrix=1.00D-08 within 128 cycles.
 Requested convergence on MAX density matrix=1.00D-06.
 Requested convergence on             energy=1.00D-06.
 No special actions if energy rises.
 SCF Done:  E(RB3LYP) =  -343.412783064     A.U. after   13 cycles
            NFock= 13  Conv=0.31D-08     -V/T= 2.0093
 DoSCS=F DFT=T ScalE2(SS,OS)=  1.000000  1.000000
 Range of M.O.s used for correlation:     1   126
 NBasis=   126 NAE=    24 NBE=    24 NFC=     0 NFV=     0
 NROrb=    126 NOA=    24 NOB=    24 NVA=   102 NVB=   102

 **** Warning!!: The largest alpha MO coefficient is  0.32255612D+02

 Symmetrizing basis deriv contribution to polar:
 IMax=3 JMax=2 DiffMx= 0.00D+00
 G2DrvN: will do    13 centers at a time, making    1 passes.
 Calling FoFCou, ICntrl=  3107 FMM=F I1Cent=   0 AccDes= 0.00D+00.
 End of G2Drv F.D. properties file   721 does not exist.
 End of G2Drv F.D. properties file   722 does not exist.
 End of G2Drv F.D. properties file   788 does not exist.
          IDoAtm=111111111111
          Differentiating once with respect to nuclear coordinates.
 Keep R1 ints in memory in canonical form, NReq=47193265.
          There are    39 degrees of freedom in the 1st order CPHF.  IDoFFX=6 NUNeed=     0.
     33 vectors produced by pass  0 Test12= 6.28D-15 2.56D-09 XBig12= 1.93D-01 2.03D-01.
 AX will form    33 AO Fock derivatives at one time.
     33 vectors produced by pass  1 Test12= 6.28D-15 2.56D-09 XBig12= 1.70D-02 4.55D-02.
     33 vectors produced by pass  2 Test12= 6.28D-15 2.56D-09 XBig12= 1.81D-04 2.92D-03.
     33 vectors produced by pass  3 Test12= 6.28D-15 2.56D-09 XBig12= 7.07D-07 1.90D-04.
     33 vectors produced by pass  4 Test12= 6.28D-15 2.56D-09 XBig12= 1.35D-09 4.99D-06.
     28 vectors produced by pass  5 Test12= 6.28D-15 2.56D-09 XBig12= 1.52D-12 1.91D-07.
      6 vectors produced by pass  6 Test12= 6.28D-15 2.56D-09 XBig12= 1.51D-15 5.35D-09.
 InvSVY:  IOpt=1 It=  1 EMax= 1.78D-15
 Solved reduced A of dimension   199 with    33 vectors.
 End of Minotr F.D. properties file   721 does not exist.
 End of Minotr F.D. properties file   722 does not exist.
 End of Minotr F.D. properties file   788 does not exist.
 Calling FoFJK, ICntrl=    100127 FMM=F ISym2X=0 I1Cent= 0 IOpClX= 0 NMat=1 NMatS=1 NMatT=0.
 -------------------------------------------------------------------
 Center     Atomic                   Forces (Hartrees/Bohr)
 Number     Number              X              Y              Z
 -------------------------------------------------------------------
      1        6           0.012065989   -0.001964572    0.002619227
      2        6           0.010033603   -0.015067485   -0.009810361
      3        6          -0.003494737   -0.000766994    0.001508969
      4        8           0.016033010    0.000709202    0.001550702
      5        8          -0.011938119    0.005777626    0.003232925
      6        8           0.001074986    0.000795314    0.000515901
      7        1          -0.000284354    0.000282393    0.000066665
      8        1          -0.000323006    0.000607822    0.000196019
      9        1          -0.000247766    0.000758212    0.000220247
     10        1          -0.000085577   -0.000219733   -0.000004142
     11        1          -0.021818717    0.007184211   -0.001047395
     12        1          -0.001015313    0.001904003    0.000951243
 -------------------------------------------------------------------
 Cartesian Forces:  Max     0.021818717 RMS     0.006623711
 IRC-IRC-IRC-IRC-IRC-IRC-IRC-IRC-IRC-IRC-IRC-IRC-IRC-IRC-IRC-IRC-IRC-IRC
 Pt  2 Step number   1 out of a maximum of 100
 Modified Bulirsch-Stoer Extrapolation Cycles:
    EPS =    0.000010000000000
      PEZero:  N= 2 I= 1 D=  8.46D-04 Err=  2.36D-05
      PEZero:  N= 3 I= 2 D=  8.46D-04 Err=  1.57D-05
      PEZero:  N= 3 I= 1 D=  1.69D-03 Err=  5.33D-08
 Maximum DWI energy   std dev =  0.000007461 at pt    70
 Maximum DWI gradient std dev =  0.006944232 at pt    62
 CORRECTOR INTEGRATION CONVERGENCE:
   Recorrection delta-x convergence threshold:    0.010000
   Delta-x Convergence Met
 Point Number:   2          Path Number:   1
   CHANGE IN THE REACTION COORDINATE =    0.16248
   NET REACTION COORDINATE UP TO THIS POINT =    0.32496
  # OF POINTS ALONG THE PATH =   2
  # OF STEPS =   1

 Calculating another point on the path.
 IRC-IRC-IRC-IRC-IRC-IRC-IRC-IRC-IRC-IRC-IRC-IRC-IRC-IRC-IRC-IRC-IRC-IRC
                          Input orientation:                          
 ---------------------------------------------------------------------
 Center     Atomic      Atomic             Coordinates (Angstroms)
 Number     Number       Type             X           Y           Z
 ---------------------------------------------------------------------
      1          6           0        0.485804    1.026384    0.289238
      2          6           0       -0.695758    0.504195   -0.404168
      3          6           0       -1.756436   -0.168125    0.353354
      4          8           0        1.307585   -0.253786   -0.102871
      5          8           0        2.879194   -0.407559   -0.052208
      6          8           0       -2.846249   -0.479298   -0.097045
      7          1           0        2.927927   -1.059617    0.672570
      8          1           0        0.993118    1.881773   -0.152634
      9          1           0        0.461408    1.062582    1.378742
     10          1           0       -1.492115   -0.417860    1.406451
     11          1           0        0.214750   -0.510983   -0.770696
     12          1           0       -0.966801    0.924430   -1.371933
 ---------------------------------------------------------------------
                    Distance matrix (angstroms):
                    1          2          3          4          5
     1  C    0.000000
     2  C    1.466145   0.000000
     3  C    2.541378   1.466592   0.000000
     4  O    1.570958   2.163030   3.098984   0.000000
     5  O    2.810888   3.706138   4.659493   1.579927   0.000000
     6  O    3.676801   2.384574   1.219581   4.159954   5.726068
     7  H    3.234549   4.090962   4.779112   1.968802   0.976144
     8  H    1.088260   2.193922   3.466721   2.159162   2.967896
     9  H    1.090379   2.197634   2.735853   2.154999   3.170903
    10  H    2.691871   2.182364   1.114112   3.184854   4.608268
    11  H    1.886910   1.412075   2.294910   1.306304   2.761555
    12  H    2.209059   1.089326   2.189478   2.858591   4.278732
                    6          7          8          9         10
     6  O    0.000000
     7  H    5.854074   0.000000
     8  H    4.507603   3.616106   0.000000
     9  H    3.936487   3.329583   1.816288   0.000000
    10  H    2.024340   4.526280   3.727659   2.451271   0.000000
    11  H    3.134409   3.121754   2.590974   2.675263   2.768037
    12  H    2.669853   4.825488   2.498896   3.102431   3.130034
                   11         12
    11  H    0.000000
    12  H    1.953960   0.000000
 Symmetry turned off by external request.
 Stoichiometry    C3H6O3
 Framework group  C1[X(C3H6O3)]
 Deg. of freedom    30
 Full point group                 C1      NOp   1
 Rotational constants (GHZ):          11.9681383           1.4040666           1.3340198
 Standard basis: 6-31+G(d) (6D, 7F)
   126 basis functions,   216 primitive gaussians,   126 cartesian basis functions
    24 alpha electrons       24 beta electrons
       nuclear repulsion energy       227.8262904617 Hartrees.
 NAtoms=   12 NActive=   12 NUniq=   12 SFac= 1.00D+00 NAtFMM=   60 NAOKFM=F Big=F
 Integral buffers will be    131072 words long.
 Raffenetti 2 integral format.
 Two-electron integral symmetry is turned off.
 One-electron integrals computed using PRISM.
 NBasis=   126 RedAO= T EigKep=  1.04D-04  NBF=   126
 NBsUse=   126 1.00D-06 EigRej= -1.00D+00 NBFU=   126
 Initial guess from the checkpoint file:  "/scratch/bell/zhao922/YARP/paper-example/KHP-network/pp_0/IRC-folder/Gau-53339.chk"
 B after Tr=    -0.001615    0.000733   -0.000001
         Rot=    1.000000   -0.000293   -0.000085    0.000036 Ang=  -0.04 deg.
 ExpMin= 4.38D-02 ExpMax= 5.48D+03 ExpMxC= 8.25D+02 IAcc=3 IRadAn=         5 AccDes= 0.00D+00
 Harris functional with IExCor=  402 and IRadAn=       5 diagonalized for initial guess.
 HarFok:  IExCor=  402 AccDes= 0.00D+00 IRadAn=         5 IDoV= 1 UseB2=F ITyADJ=14
 ICtDFT=  3500011 ScaDFX=  1.000000  1.000000  1.000000  1.000000
 FoFCou: FMM=F IPFlag=           0 FMFlag=      100000 FMFlg1=           0
         NFxFlg=           0 DoJE=T BraDBF=F KetDBF=T FulRan=T
         wScrn=  0.000000 ICntrl=       500 IOpCl=  0 I1Cent=   200000004 NGrid=           0
         NMat0=    1 NMatS0=      1 NMatT0=    0 NMatD0=    1 NMtDS0=    0 NMtDT0=    0
 Symmetry not used in FoFCou.
 Keep R1 ints in memory in canonical form, NReq=47237243.
 Requested convergence on RMS density matrix=1.00D-08 within 128 cycles.
 Requested convergence on MAX density matrix=1.00D-06.
 Requested convergence on             energy=1.00D-06.
 No special actions if energy rises.
 SCF Done:  E(RB3LYP) =  -343.417874436     A.U. after   12 cycles
            NFock= 12  Conv=0.96D-08     -V/T= 2.0094
 DoSCS=F DFT=T ScalE2(SS,OS)=  1.000000  1.000000
 Range of M.O.s used for correlation:     1   126
 NBasis=   126 NAE=    24 NBE=    24 NFC=     0 NFV=     0
 NROrb=    126 NOA=    24 NOB=    24 NVA=   102 NVB=   102

 **** Warning!!: The largest alpha MO coefficient is  0.32309290D+02

 Symmetrizing basis deriv contribution to polar:
 IMax=3 JMax=2 DiffMx= 0.00D+00
 G2DrvN: will do    13 centers at a time, making    1 passes.
 Calling FoFCou, ICntrl=  3107 FMM=F I1Cent=   0 AccDes= 0.00D+00.
 End of G2Drv F.D. properties file   721 does not exist.
 End of G2Drv F.D. properties file   722 does not exist.
 End of G2Drv F.D. properties file   788 does not exist.
          IDoAtm=111111111111
          Differentiating once with respect to nuclear coordinates.
 Keep R1 ints in memory in canonical form, NReq=47193265.
          There are    39 degrees of freedom in the 1st order CPHF.  IDoFFX=6 NUNeed=     0.
     33 vectors produced by pass  0 Test12= 6.28D-15 2.56D-09 XBig12= 1.67D-01 1.70D-01.
 AX will form    33 AO Fock derivatives at one time.
     33 vectors produced by pass  1 Test12= 6.28D-15 2.56D-09 XBig12= 1.66D-02 4.29D-02.
     33 vectors produced by pass  2 Test12= 6.28D-15 2.56D-09 XBig12= 1.70D-04 3.63D-03.
     33 vectors produced by pass  3 Test12= 6.28D-15 2.56D-09 XBig12= 1.03D-06 2.56D-04.
     33 vectors produced by pass  4 Test12= 6.28D-15 2.56D-09 XBig12= 1.88D-09 4.63D-06.
     28 vectors produced by pass  5 Test12= 6.28D-15 2.56D-09 XBig12= 2.01D-12 2.02D-07.
      4 vectors produced by pass  6 Test12= 6.28D-15 2.56D-09 XBig12= 1.99D-15 6.18D-09.
 InvSVY:  IOpt=1 It=  1 EMax= 2.00D-15
 Solved reduced A of dimension   197 with    33 vectors.
 End of Minotr F.D. properties file   721 does not exist.
 End of Minotr F.D. properties file   722 does not exist.
 End of Minotr F.D. properties file   788 does not exist.
 Calling FoFJK, ICntrl=    100127 FMM=F ISym2X=0 I1Cent= 0 IOpClX= 0 NMat=1 NMatS=1 NMatT=0.
 -------------------------------------------------------------------
 Center     Atomic                   Forces (Hartrees/Bohr)
 Number     Number              X              Y              Z
 -------------------------------------------------------------------
      1        6           0.018356780   -0.003601766    0.003503372
      2        6           0.014508166   -0.022723595   -0.015248933
      3        6          -0.005637157   -0.000915595    0.002521908
      4        8           0.025293972    0.000880362    0.003355064
      5        8          -0.017848849    0.008769540    0.004712719
      6        8           0.001605879    0.001112911    0.000768311
      7        1          -0.000437939    0.000459562    0.000119817
      8        1          -0.000523858    0.000907625    0.000275539
      9        1          -0.000396491    0.001115192    0.000299690
     10        1          -0.000140572   -0.000354389    0.000002189
     11        1          -0.033066556    0.011248786   -0.001864493
     12        1          -0.001713375    0.003101367    0.001554817
 -------------------------------------------------------------------
 Cartesian Forces:  Max     0.033066556 RMS     0.010105142
 IRC-IRC-IRC-IRC-IRC-IRC-IRC-IRC-IRC-IRC-IRC-IRC-IRC-IRC-IRC-IRC-IRC-IRC
 Pt  3 Step number   1 out of a maximum of 100
 Modified Bulirsch-Stoer Extrapolation Cycles:
    EPS =    0.000010000000000
      PEZero:  N= 2 I= 1 D=  8.46D-04 Err=  1.23D-05
      PEZero:  N= 3 I= 2 D=  8.46D-04 Err=  8.21D-06
      PEZero:  N= 3 I= 1 D=  1.69D-03 Err=  1.74D-08
 Maximum DWI energy   std dev =  0.000011676 at pt    27
 Maximum DWI gradient std dev =  0.002008501 at pt    27
 CORRECTOR INTEGRATION CONVERGENCE:
   Recorrection delta-x convergence threshold:    0.010000
   Delta-x Convergence Met
 Point Number:   3          Path Number:   1
   CHANGE IN THE REACTION COORDINATE =    0.16250
   NET REACTION COORDINATE UP TO THIS POINT =    0.48745
  # OF POINTS ALONG THE PATH =   3
  # OF STEPS =   1

 Calculating another point on the path.
 IRC-IRC-IRC-IRC-IRC-IRC-IRC-IRC-IRC-IRC-IRC-IRC-IRC-IRC-IRC-IRC-IRC-IRC
                          Input orientation:                          
 ---------------------------------------------------------------------
 Center     Atomic      Atomic             Coordinates (Angstroms)
 Number     Number       Type             X           Y           Z
 ---------------------------------------------------------------------
      1          6           0        0.489339    1.025629    0.289866
      2          6           0       -0.693058    0.499868   -0.407113
      3          6           0       -1.757543   -0.168274    0.353861
      4          8           0        1.311261   -0.253669   -0.102331
      5          8           0        2.876641   -0.406291   -0.051540
      6          8           0       -2.846024   -0.479144   -0.096936
      7          1           0        2.926907   -1.058531    0.672863
      8          1           0        0.991904    1.883818   -0.152026
      9          1           0        0.460504    1.065079    1.379384
     10          1           0       -1.492453   -0.418692    1.406468
     11          1           0        0.139877   -0.485255   -0.775267
     12          1           0       -0.970910    0.931769   -1.368261
 ---------------------------------------------------------------------
                    Distance matrix (angstroms):
                    1          2          3          4          5
     1  C    0.000000
     2  C    1.469784   0.000000
     3  C    2.545187   1.469225   0.000000
     4  O    1.570344   2.162869   3.103702   0.000000
     5  O    2.804668   3.700041   4.657968   1.573622   0.000000
     6  O    3.679484   2.385359   1.218461   4.163399   5.723308
     7  H    3.229884   4.086454   4.778954   1.964445   0.976066
     8  H    1.088269   2.195332   3.467919   2.161784   2.967647
     9  H    1.090613   2.200396   2.737260   2.158324   3.170203
    10  H    2.694505   2.184459   1.113986   3.188185   4.605966
    11  H    1.881330   1.341560   2.230607   1.370626   2.831942
    12  H    2.211453   1.089746   2.189655   2.866383   4.281099
                    6          7          8          9         10
     6  O    0.000000
     7  H    5.852778   0.000000
     8  H    4.507362   3.616918   0.000000
     9  H    3.936657   3.330471   1.816022   0.000000
    10  H    2.023865   4.525297   3.728604   2.452825   0.000000
    11  H    3.061988   3.192690   2.593624   2.673734   2.725600
    12  H    2.668894   4.829127   2.497652   3.101012   3.129676
                   11         12
    11  H    0.000000
    12  H    1.895639   0.000000
 Symmetry turned off by external request.
 Stoichiometry    C3H6O3
 Framework group  C1[X(C3H6O3)]
 Deg. of freedom    30
 Full point group                 C1      NOp   1
 Rotational constants (GHZ):          11.9849436           1.4042544           1.3346486
 Standard basis: 6-31+G(d) (6D, 7F)
   126 basis functions,   216 primitive gaussians,   126 cartesian basis functions
    24 alpha electrons       24 beta electrons
       nuclear repulsion energy       227.8811036058 Hartrees.
 NAtoms=   12 NActive=   12 NUniq=   12 SFac= 1.00D+00 NAtFMM=   60 NAOKFM=F Big=F
 Integral buffers will be    131072 words long.
 Raffenetti 2 integral format.
 Two-electron integral symmetry is turned off.
 One-electron integrals computed using PRISM.
 NBasis=   126 RedAO= T EigKep=  1.05D-04  NBF=   126
 NBsUse=   126 1.00D-06 EigRej= -1.00D+00 NBFU=   126
 Initial guess from the checkpoint file:  "/scratch/bell/zhao922/YARP/paper-example/KHP-network/pp_0/IRC-folder/Gau-53339.chk"
 B after Tr=    -0.001617    0.000757   -0.000002
         Rot=    1.000000   -0.000310   -0.000086    0.000035 Ang=  -0.04 deg.
 ExpMin= 4.38D-02 ExpMax= 5.48D+03 ExpMxC= 8.25D+02 IAcc=3 IRadAn=         5 AccDes= 0.00D+00
 Harris functional with IExCor=  402 and IRadAn=       5 diagonalized for initial guess.
 HarFok:  IExCor=  402 AccDes= 0.00D+00 IRadAn=         5 IDoV= 1 UseB2=F ITyADJ=14
 ICtDFT=  3500011 ScaDFX=  1.000000  1.000000  1.000000  1.000000
 FoFCou: FMM=F IPFlag=           0 FMFlag=      100000 FMFlg1=           0
         NFxFlg=           0 DoJE=T BraDBF=F KetDBF=T FulRan=T
         wScrn=  0.000000 ICntrl=       500 IOpCl=  0 I1Cent=   200000004 NGrid=           0
         NMat0=    1 NMatS0=      1 NMatT0=    0 NMatD0=    1 NMtDS0=    0 NMtDT0=    0
 Symmetry not used in FoFCou.
 Keep R1 ints in memory in canonical form, NReq=47237243.
 Requested convergence on RMS density matrix=1.00D-08 within 128 cycles.
 Requested convergence on MAX density matrix=1.00D-06.
 Requested convergence on             energy=1.00D-06.
 No special actions if energy rises.
 SCF Done:  E(RB3LYP) =  -343.424790378     A.U. after   12 cycles
            NFock= 12  Conv=0.80D-08     -V/T= 2.0094
 DoSCS=F DFT=T ScalE2(SS,OS)=  1.000000  1.000000
 Range of M.O.s used for correlation:     1   126
 NBasis=   126 NAE=    24 NBE=    24 NFC=     0 NFV=     0
 NROrb=    126 NOA=    24 NOB=    24 NVA=   102 NVB=   102

 **** Warning!!: The largest alpha MO coefficient is  0.31722101D+02

 Symmetrizing basis deriv contribution to polar:
 IMax=3 JMax=2 DiffMx= 0.00D+00
 G2DrvN: will do    13 centers at a time, making    1 passes.
 Calling FoFCou, ICntrl=  3107 FMM=F I1Cent=   0 AccDes= 0.00D+00.
 End of G2Drv F.D. properties file   721 does not exist.
 End of G2Drv F.D. properties file   722 does not exist.
 End of G2Drv F.D. properties file   788 does not exist.
          IDoAtm=111111111111
          Differentiating once with respect to nuclear coordinates.
 Keep R1 ints in memory in canonical form, NReq=47193265.
          There are    39 degrees of freedom in the 1st order CPHF.  IDoFFX=6 NUNeed=     0.
     33 vectors produced by pass  0 Test12= 6.28D-15 2.56D-09 XBig12= 1.44D-01 1.52D-01.
 AX will form    33 AO Fock derivatives at one time.
     33 vectors produced by pass  1 Test12= 6.28D-15 2.56D-09 XBig12= 1.61D-02 3.86D-02.
     33 vectors produced by pass  2 Test12= 6.28D-15 2.56D-09 XBig12= 1.97D-04 4.27D-03.
     33 vectors produced by pass  3 Test12= 6.28D-15 2.56D-09 XBig12= 1.55D-06 3.29D-04.
     33 vectors produced by pass  4 Test12= 6.28D-15 2.56D-09 XBig12= 2.88D-09 5.82D-06.
     29 vectors produced by pass  5 Test12= 6.28D-15 2.56D-09 XBig12= 2.91D-12 2.06D-07.
      3 vectors produced by pass  6 Test12= 6.28D-15 2.56D-09 XBig12= 2.77D-15 7.63D-09.
 InvSVY:  IOpt=1 It=  1 EMax= 2.00D-15
 Solved reduced A of dimension   197 with    33 vectors.
 End of Minotr F.D. properties file   721 does not exist.
 End of Minotr F.D. properties file   722 does not exist.
 End of Minotr F.D. properties file   788 does not exist.
 Calling FoFJK, ICntrl=    100127 FMM=F ISym2X=0 I1Cent= 0 IOpClX= 0 NMat=1 NMatS=1 NMatT=0.
 -------------------------------------------------------------------
 Center     Atomic                   Forces (Hartrees/Bohr)
 Number     Number              X              Y              Z
 -------------------------------------------------------------------
      1        6           0.024003566   -0.005621584    0.003907465
      2        6           0.017010297   -0.028327917   -0.019777761
      3        6          -0.007628837   -0.000739143    0.003600162
      4        8           0.032672935    0.000906373    0.004990724
      5        8          -0.022790582    0.011491547    0.005931488
      6        8           0.001926184    0.001311690    0.000953859
      7        1          -0.000594357    0.000633351    0.000176502
      8        1          -0.000694013    0.001142042    0.000331399
      9        1          -0.000509992    0.001384324    0.000344902
     10        1          -0.000201296   -0.000491634    0.000025802
     11        1          -0.040753503    0.013989814   -0.002691355
     12        1          -0.002440401    0.004321136    0.002206813
 -------------------------------------------------------------------
 Cartesian Forces:  Max     0.040753503 RMS     0.012761195
 IRC-IRC-IRC-IRC-IRC-IRC-IRC-IRC-IRC-IRC-IRC-IRC-IRC-IRC-IRC-IRC-IRC-IRC
 Pt  4 Step number   1 out of a maximum of 100
 Modified Bulirsch-Stoer Extrapolation Cycles:
    EPS =    0.000010000000000
      PEZero:  N= 2 I= 1 D=  8.46D-04 Err=  1.25D-05
      PEZero:  N= 3 I= 2 D=  8.46D-04 Err=  8.32D-06
      PEZero:  N= 3 I= 1 D=  1.69D-03 Err=  1.40D-08
 Maximum DWI energy   std dev =  0.000021722 at pt    28
 Maximum DWI gradient std dev =  0.002750389 at pt    18
 CORRECTOR INTEGRATION CONVERGENCE:
   Recorrection delta-x convergence threshold:    0.010000
   Delta-x Convergence Met
 Point Number:   4          Path Number:   1
   CHANGE IN THE REACTION COORDINATE =    0.16250
   NET REACTION COORDINATE UP TO THIS POINT =    0.64996
  # OF POINTS ALONG THE PATH =   4
  # OF STEPS =   1

 Calculating another point on the path.
 IRC-IRC-IRC-IRC-IRC-IRC-IRC-IRC-IRC-IRC-IRC-IRC-IRC-IRC-IRC-IRC-IRC-IRC
                          Input orientation:                          
 ---------------------------------------------------------------------
 Center     Atomic      Atomic             Coordinates (Angstroms)
 Number     Number       Type             X           Y           Z
 ---------------------------------------------------------------------
      1          6           0        0.493178    1.024646    0.290433
      2          6           0       -0.690529    0.495497   -0.410234
      3          6           0       -1.758776   -0.168351    0.354462
      4          8           0        1.315115   -0.253576   -0.101719
      5          8           0        2.873937   -0.404905   -0.050838
      6          8           0       -2.845809   -0.478996   -0.096825
      7          1           0        2.925754   -1.057295    0.673218
      8          1           0        0.990595    1.885930   -0.151425
      9          1           0        0.459565    1.067626    1.379986
     10          1           0       -1.492856   -0.419652    1.406541
     11          1           0        0.065706   -0.459848   -0.780600
     12          1           0       -0.975748    0.940263   -1.363911
 ---------------------------------------------------------------------
                    Distance matrix (angstroms):
                    1          2          3          4          5
     1  C    0.000000
     2  C    1.473802   0.000000
     3  C    2.549242   1.471939   0.000000
     4  O    1.569464   2.163076   3.108725   0.000000
     5  O    2.797874   3.693955   4.656421   1.566976   0.000000
     6  O    3.682356   2.386021   1.217293   4.167029   5.720412
     7  H    3.224660   4.081976   4.778770   1.959757   0.975989
     8  H    1.088334   2.196922   3.469154   2.164548   2.967325
     9  H    1.090919   2.203392   2.738681   2.161710   3.169353
    10  H    2.697411   2.186755   1.113884   3.191729   4.603592
    11  H    1.879778   1.273478   2.168426   1.436820   2.902022
    12  H    2.213982   1.090260   2.189740   2.875141   4.284124
                    6          7          8          9         10
     6  O    0.000000
     7  H    5.851353   0.000000
     8  H    4.507090   3.617657   0.000000
     9  H    3.936815   3.331200   1.815718   0.000000
    10  H    2.023392   4.524209   3.729677   2.454516   0.000000
    11  H    2.990792   3.263495   2.598837   2.675151   2.685948
    12  H    2.667758   4.833409   2.496180   3.099244   3.129245
                   11         12
    11  H    0.000000
    12  H    1.839888   0.000000
 Symmetry turned off by external request.
 Stoichiometry    C3H6O3
 Framework group  C1[X(C3H6O3)]
 Deg. of freedom    30
 Full point group                 C1      NOp   1
 Rotational constants (GHZ):          12.0022841           1.4043577           1.3352204
 Standard basis: 6-31+G(d) (6D, 7F)
   126 basis functions,   216 primitive gaussians,   126 cartesian basis functions
    24 alpha electrons       24 beta electrons
       nuclear repulsion energy       227.9566106182 Hartrees.
 NAtoms=   12 NActive=   12 NUniq=   12 SFac= 1.00D+00 NAtFMM=   60 NAOKFM=F Big=F
 Integral buffers will be    131072 words long.
 Raffenetti 2 integral format.
 Two-electron integral symmetry is turned off.
 One-electron integrals computed using PRISM.
 NBasis=   126 RedAO= T EigKep=  1.05D-04  NBF=   126
 NBsUse=   126 1.00D-06 EigRej= -1.00D+00 NBFU=   126
 Initial guess from the checkpoint file:  "/scratch/bell/zhao922/YARP/paper-example/KHP-network/pp_0/IRC-folder/Gau-53339.chk"
 B after Tr=    -0.001624    0.000776   -0.000005
         Rot=    1.000000   -0.000330   -0.000087    0.000035 Ang=  -0.04 deg.
 ExpMin= 4.38D-02 ExpMax= 5.48D+03 ExpMxC= 8.25D+02 IAcc=3 IRadAn=         5 AccDes= 0.00D+00
 Harris functional with IExCor=  402 and IRadAn=       5 diagonalized for initial guess.
 HarFok:  IExCor=  402 AccDes= 0.00D+00 IRadAn=         5 IDoV= 1 UseB2=F ITyADJ=14
 ICtDFT=  3500011 ScaDFX=  1.000000  1.000000  1.000000  1.000000
 FoFCou: FMM=F IPFlag=           0 FMFlag=      100000 FMFlg1=           0
         NFxFlg=           0 DoJE=T BraDBF=F KetDBF=T FulRan=T
         wScrn=  0.000000 ICntrl=       500 IOpCl=  0 I1Cent=   200000004 NGrid=           0
         NMat0=    1 NMatS0=      1 NMatT0=    0 NMatD0=    1 NMtDS0=    0 NMtDT0=    0
 Symmetry not used in FoFCou.
 Keep R1 ints in memory in canonical form, NReq=47237243.
 Requested convergence on RMS density matrix=1.00D-08 within 128 cycles.
 Requested convergence on MAX density matrix=1.00D-06.
 Requested convergence on             energy=1.00D-06.
 No special actions if energy rises.
 SCF Done:  E(RB3LYP) =  -343.432697575     A.U. after   12 cycles
            NFock= 12  Conv=0.64D-08     -V/T= 2.0094
 DoSCS=F DFT=T ScalE2(SS,OS)=  1.000000  1.000000
 Range of M.O.s used for correlation:     1   126
 NBasis=   126 NAE=    24 NBE=    24 NFC=     0 NFV=     0
 NROrb=    126 NOA=    24 NOB=    24 NVA=   102 NVB=   102

 **** Warning!!: The largest alpha MO coefficient is  0.30202734D+02

 Symmetrizing basis deriv contribution to polar:
 IMax=3 JMax=2 DiffMx= 0.00D+00
 G2DrvN: will do    13 centers at a time, making    1 passes.
 Calling FoFCou, ICntrl=  3107 FMM=F I1Cent=   0 AccDes= 0.00D+00.
 End of G2Drv F.D. properties file   721 does not exist.
 End of G2Drv F.D. properties file   722 does not exist.
 End of G2Drv F.D. properties file   788 does not exist.
          IDoAtm=111111111111
          Differentiating once with respect to nuclear coordinates.
 Keep R1 ints in memory in canonical form, NReq=47193265.
          There are    39 degrees of freedom in the 1st order CPHF.  IDoFFX=6 NUNeed=     0.
     33 vectors produced by pass  0 Test12= 6.28D-15 2.56D-09 XBig12= 1.37D-01 1.38D-01.
 AX will form    33 AO Fock derivatives at one time.
     33 vectors produced by pass  1 Test12= 6.28D-15 2.56D-09 XBig12= 1.57D-02 3.35D-02.
     33 vectors produced by pass  2 Test12= 6.28D-15 2.56D-09 XBig12= 2.41D-04 4.66D-03.
     33 vectors produced by pass  3 Test12= 6.28D-15 2.56D-09 XBig12= 2.20D-06 3.78D-04.
     33 vectors produced by pass  4 Test12= 6.28D-15 2.56D-09 XBig12= 3.91D-09 8.55D-06.
     28 vectors produced by pass  5 Test12= 6.28D-15 2.56D-09 XBig12= 3.89D-12 2.53D-07.
      4 vectors produced by pass  6 Test12= 6.28D-15 2.56D-09 XBig12= 3.64D-15 8.59D-09.
 InvSVY:  IOpt=1 It=  1 EMax= 1.22D-15
 Solved reduced A of dimension   197 with    33 vectors.
 End of Minotr F.D. properties file   721 does not exist.
 End of Minotr F.D. properties file   722 does not exist.
 End of Minotr F.D. properties file   788 does not exist.
 Calling FoFJK, ICntrl=    100127 FMM=F ISym2X=0 I1Cent= 0 IOpClX= 0 NMat=1 NMatS=1 NMatT=0.
 -------------------------------------------------------------------
 Center     Atomic                   Forces (Hartrees/Bohr)
 Number     Number              X              Y              Z
 -------------------------------------------------------------------
      1        6           0.028596541   -0.008051833    0.003705121
      2        6           0.016437134   -0.030172861   -0.022463753
      3        6          -0.009246442   -0.000182159    0.004694000
      4        8           0.037014779    0.000782958    0.005995039
      5        8          -0.026455668    0.013831774    0.006876514
      6        8           0.001919837    0.001359417    0.001041161
      7        1          -0.000735116    0.000789486    0.000232533
      8        1          -0.000808910    0.001277108    0.000355842
      9        1          -0.000569411    0.001533710    0.000341360
     10        1          -0.000264220   -0.000620438    0.000068867
     11        1          -0.042750961    0.013966645   -0.003726983
     12        1          -0.003137564    0.005486193    0.002880300
 -------------------------------------------------------------------
 Cartesian Forces:  Max     0.042750961 RMS     0.014075769
 IRC-IRC-IRC-IRC-IRC-IRC-IRC-IRC-IRC-IRC-IRC-IRC-IRC-IRC-IRC-IRC-IRC-IRC
 Pt  5 Step number   1 out of a maximum of 100
 Modified Bulirsch-Stoer Extrapolation Cycles:
    EPS =    0.000010000000000
      PEZero:  N= 2 I= 1 D=  8.46D-04 Err=  2.24D-05
      PEZero:  N= 3 I= 2 D=  8.46D-04 Err=  1.50D-05
      PEZero:  N= 3 I= 1 D=  1.69D-03 Err=  2.10D-08
 Maximum DWI energy   std dev =  0.000028180 at pt    28
 Maximum DWI gradient std dev =  0.004707808 at pt    27
 CORRECTOR INTEGRATION CONVERGENCE:
   Recorrection delta-x convergence threshold:    0.010000
   Delta-x Convergence Met
 Point Number:   5          Path Number:   1
   CHANGE IN THE REACTION COORDINATE =    0.16249
   NET REACTION COORDINATE UP TO THIS POINT =    0.81245
  # OF POINTS ALONG THE PATH =   5
  # OF STEPS =   1

 Calculating another point on the path.
 IRC-IRC-IRC-IRC-IRC-IRC-IRC-IRC-IRC-IRC-IRC-IRC-IRC-IRC-IRC-IRC-IRC-IRC
                          Input orientation:                          
 ---------------------------------------------------------------------
 Center     Atomic      Atomic             Coordinates (Angstroms)
 Number     Number       Type             X           Y           Z
 ---------------------------------------------------------------------
      1          6           0        0.497660    1.023250    0.290922
      2          6           0       -0.688301    0.491122   -0.413624
      3          6           0       -1.760227   -0.168317    0.355233
      4          8           0        1.319319   -0.253501   -0.101031
      5          8           0        2.870861   -0.403260   -0.050033
      6          8           0       -2.845617   -0.478850   -0.096710
      7          1           0        2.924362   -1.055783    0.673675
      8          1           0        0.989131    1.888197   -0.150805
      9          1           0        0.458572    1.070344    1.380536
     10          1           0       -1.493376   -0.420836    1.406708
     11          1           0       -0.007410   -0.437059   -0.788142
     12          1           0       -0.981828    0.950846   -1.358321
 ---------------------------------------------------------------------
                    Distance matrix (angstroms):
                    1          2          3          4          5
     1  C    0.000000
     2  C    1.478529   0.000000
     3  C    2.553824   1.474797   0.000000
     4  O    1.568070   2.163958   3.114327   0.000000
     5  O    2.789850   3.687784   4.654719   1.559587   0.000000
     6  O    3.685656   2.386481   1.216040   4.171030   5.717168
     7  H    3.218347   4.077557   4.778533   1.954479   0.975911
     8  H    1.088486   2.198789   3.470489   2.167573   2.966789
     9  H    1.091331   2.206768   2.740182   2.165293   3.168150
    10  H    2.700849   2.189389   1.113812   3.195705   4.600974
    11  H    1.884669   1.210535   2.109951   1.505332   2.971598
    12  H    2.216784   1.090851   2.189680   2.885568   4.288173
                    6          7          8          9         10
     6  O    0.000000
     7  H    5.849701   0.000000
     8  H    4.506787   3.618274   0.000000
     9  H    3.936993   3.331695   1.815318   0.000000
    10  H    2.022916   4.522931   3.730995   2.456502   0.000000
    11  H    2.921513   3.333919   2.608852   2.681896   2.650608
    12  H    2.666346   4.838790   2.494274   3.096832   3.128671
                   11         12
    11  H    0.000000
    12  H    1.789098   0.000000
 Symmetry turned off by external request.
 Stoichiometry    C3H6O3
 Framework group  C1[X(C3H6O3)]
 Deg. of freedom    30
 Full point group                 C1      NOp   1
 Rotational constants (GHZ):          12.0200846           1.4043741           1.3357484
 Standard basis: 6-31+G(d) (6D, 7F)
   126 basis functions,   216 primitive gaussians,   126 cartesian basis functions
    24 alpha electrons       24 beta electrons
       nuclear repulsion energy       228.0454359010 Hartrees.
 NAtoms=   12 NActive=   12 NUniq=   12 SFac= 1.00D+00 NAtFMM=   60 NAOKFM=F Big=F
 Integral buffers will be    131072 words long.
 Raffenetti 2 integral format.
 Two-electron integral symmetry is turned off.
 One-electron integrals computed using PRISM.
 NBasis=   126 RedAO= T EigKep=  1.06D-04  NBF=   126
 NBsUse=   126 1.00D-06 EigRej= -1.00D+00 NBFU=   126
 Initial guess from the checkpoint file:  "/scratch/bell/zhao922/YARP/paper-example/KHP-network/pp_0/IRC-folder/Gau-53339.chk"
 B after Tr=    -0.001639    0.000774   -0.000023
         Rot=    1.000000   -0.000356   -0.000090    0.000033 Ang=  -0.04 deg.
 ExpMin= 4.38D-02 ExpMax= 5.48D+03 ExpMxC= 8.25D+02 IAcc=3 IRadAn=         5 AccDes= 0.00D+00
 Harris functional with IExCor=  402 and IRadAn=       5 diagonalized for initial guess.
 HarFok:  IExCor=  402 AccDes= 0.00D+00 IRadAn=         5 IDoV= 1 UseB2=F ITyADJ=14
 ICtDFT=  3500011 ScaDFX=  1.000000  1.000000  1.000000  1.000000
 FoFCou: FMM=F IPFlag=           0 FMFlag=      100000 FMFlg1=           0
         NFxFlg=           0 DoJE=T BraDBF=F KetDBF=T FulRan=T
         wScrn=  0.000000 ICntrl=       500 IOpCl=  0 I1Cent=   200000004 NGrid=           0
         NMat0=    1 NMatS0=      1 NMatT0=    0 NMatD0=    1 NMtDS0=    0 NMtDT0=    0
 Symmetry not used in FoFCou.
 Keep R1 ints in memory in canonical form, NReq=47237243.
 Requested convergence on RMS density matrix=1.00D-08 within 128 cycles.
 Requested convergence on MAX density matrix=1.00D-06.
 Requested convergence on             energy=1.00D-06.
 No special actions if energy rises.
 SCF Done:  E(RB3LYP) =  -343.440478931     A.U. after   12 cycles
            NFock= 12  Conv=0.50D-08     -V/T= 2.0093
 DoSCS=F DFT=T ScalE2(SS,OS)=  1.000000  1.000000
 Range of M.O.s used for correlation:     1   126
 NBasis=   126 NAE=    24 NBE=    24 NFC=     0 NFV=     0
 NROrb=    126 NOA=    24 NOB=    24 NVA=   102 NVB=   102

 **** Warning!!: The largest alpha MO coefficient is  0.27705328D+02

 Symmetrizing basis deriv contribution to polar:
 IMax=3 JMax=2 DiffMx= 0.00D+00
 G2DrvN: will do    13 centers at a time, making    1 passes.
 Calling FoFCou, ICntrl=  3107 FMM=F I1Cent=   0 AccDes= 0.00D+00.
 End of G2Drv F.D. properties file   721 does not exist.
 End of G2Drv F.D. properties file   722 does not exist.
 End of G2Drv F.D. properties file   788 does not exist.
          IDoAtm=111111111111
          Differentiating once with respect to nuclear coordinates.
 Keep R1 ints in memory in canonical form, NReq=47193265.
          There are    39 degrees of freedom in the 1st order CPHF.  IDoFFX=6 NUNeed=     0.
     33 vectors produced by pass  0 Test12= 6.28D-15 2.56D-09 XBig12= 1.37D-01 1.41D-01.
 AX will form    33 AO Fock derivatives at one time.
     33 vectors produced by pass  1 Test12= 6.28D-15 2.56D-09 XBig12= 1.54D-02 2.90D-02.
     33 vectors produced by pass  2 Test12= 6.28D-15 2.56D-09 XBig12= 2.79D-04 4.74D-03.
     33 vectors produced by pass  3 Test12= 6.28D-15 2.56D-09 XBig12= 2.66D-06 3.71D-04.
     33 vectors produced by pass  4 Test12= 6.28D-15 2.56D-09 XBig12= 4.53D-09 8.64D-06.
     28 vectors produced by pass  5 Test12= 6.28D-15 2.56D-09 XBig12= 4.61D-12 2.66D-07.
      4 vectors produced by pass  6 Test12= 6.28D-15 2.56D-09 XBig12= 4.29D-15 8.24D-09.
 InvSVY:  IOpt=1 It=  1 EMax= 3.33D-15
 Solved reduced A of dimension   197 with    33 vectors.
 End of Minotr F.D. properties file   721 does not exist.
 End of Minotr F.D. properties file   722 does not exist.
 End of Minotr F.D. properties file   788 does not exist.
 Calling FoFJK, ICntrl=    100127 FMM=F ISym2X=0 I1Cent= 0 IOpClX= 0 NMat=1 NMatS=1 NMatT=0.
 -------------------------------------------------------------------
 Center     Atomic                   Forces (Hartrees/Bohr)
 Number     Number              X              Y              Z
 -------------------------------------------------------------------
      1        6           0.031760554   -0.010982184    0.002740046
      2        6           0.012247082   -0.026903370   -0.022465820
      3        6          -0.010275275    0.000760307    0.005761398
      4        8           0.037962980    0.000616091    0.006250688
      5        8          -0.028678760    0.015731863    0.007584842
      6        8           0.001476473    0.001236905    0.001007562
      7        1          -0.000835335    0.000921461    0.000285225
      8        1          -0.000844422    0.001271364    0.000339951
      9        1          -0.000554390    0.001527891    0.000269333
     10        1          -0.000325067   -0.000724988    0.000128951
     11        1          -0.038203137    0.010049008   -0.005449901
     12        1          -0.003730704    0.006495652    0.003547725
 -------------------------------------------------------------------
 Cartesian Forces:  Max     0.038203137 RMS     0.013878291
 IRC-IRC-IRC-IRC-IRC-IRC-IRC-IRC-IRC-IRC-IRC-IRC-IRC-IRC-IRC-IRC-IRC-IRC
 Pt  6 Step number   1 out of a maximum of 100
 Modified Bulirsch-Stoer Extrapolation Cycles:
    EPS =    0.000010000000000
      PEZero:  N= 2 I= 1 D=  8.46D-04 Err=  6.14D-05
      PEZero:  N= 3 I= 2 D=  8.46D-04 Err=  4.09D-05
      PEZero:  N= 3 I= 1 D=  1.69D-03 Err=  4.85D-08
 Maximum DWI energy   std dev =  0.000028820 at pt    19
 Maximum DWI gradient std dev =  0.007619856 at pt    27
 CORRECTOR INTEGRATION CONVERGENCE:
   Recorrection delta-x convergence threshold:    0.010000
   Delta-x Convergence Met
 Point Number:   6          Path Number:   1
   CHANGE IN THE REACTION COORDINATE =    0.16241
   NET REACTION COORDINATE UP TO THIS POINT =    0.97485
  # OF POINTS ALONG THE PATH =   6
  # OF STEPS =   1

 Calculating another point on the path.
 IRC-IRC-IRC-IRC-IRC-IRC-IRC-IRC-IRC-IRC-IRC-IRC-IRC-IRC-IRC-IRC-IRC-IRC
                          Input orientation:                          
 ---------------------------------------------------------------------
 Center     Atomic      Atomic             Coordinates (Angstroms)
 Number     Number       Type             X           Y           Z
 ---------------------------------------------------------------------
      1          6           0        0.503339    1.021032    0.291246
      2          6           0       -0.686671    0.486960   -0.417370
      3          6           0       -1.762046   -0.168081    0.356321
      4          8           0        1.324166   -0.253433   -0.100239
      5          8           0        2.867048   -0.401100   -0.049003
      6          8           0       -2.845484   -0.478704   -0.096586
      7          1           0        2.922583   -1.053753    0.674322
      8          1           0        0.987447    1.890658   -0.150164
      9          1           0        0.457539    1.073324    1.380941
     10          1           0       -1.494108   -0.422402    1.407046
     11          1           0       -0.077847   -0.421760   -0.801142
     12          1           0       -0.990056    0.965163   -1.350432
 ---------------------------------------------------------------------
                    Distance matrix (angstroms):
                    1          2          3          4          5
     1  C    0.000000
     2  C    1.484416   0.000000
     3  C    2.559335   1.477873   0.000000
     4  O    1.565657   2.166153   3.120968   0.000000
     5  O    2.779452   3.681476   4.652644   1.550779   0.000000
     6  O    3.689747   2.386605   1.214680   4.175732   5.713257
     7  H    3.210019   4.073365   4.778210   1.948177   0.975827
     8  H    1.088785   2.201008   3.471980   2.170945   2.965686
     9  H    1.091910   2.210648   2.741805   2.169153   3.166134
    10  H    2.705237   2.192575   1.113774   3.200489   4.597849
    11  H    1.900720   1.159189   2.059272   1.576464   3.039498
    12  H    2.220013   1.091479   2.189341   2.898894   4.293908
                    6          7          8          9         10
     6  O    0.000000
     7  H    5.847699   0.000000
     8  H    4.506451   3.618575   0.000000
     9  H    3.937238   3.331698   1.814695   0.000000
    10  H    2.022448   4.521355   3.732729   2.459026   0.000000
    11  H    2.856476   3.402791   2.627908   2.698778   2.623335
    12  H    2.664487   4.846070   2.491526   3.093159   3.127793
                   11         12
    11  H    0.000000
    12  H    1.748543   0.000000
 Symmetry turned off by external request.
 Stoichiometry    C3H6O3
 Framework group  C1[X(C3H6O3)]
 Deg. of freedom    30
 Full point group                 C1      NOp   1
 Rotational constants (GHZ):          12.0384628           1.4042820           1.3362419
 Standard basis: 6-31+G(d) (6D, 7F)
   126 basis functions,   216 primitive gaussians,   126 cartesian basis functions
    24 alpha electrons       24 beta electrons
       nuclear repulsion energy       228.1285060150 Hartrees.
 NAtoms=   12 NActive=   12 NUniq=   12 SFac= 1.00D+00 NAtFMM=   60 NAOKFM=F Big=F
 Integral buffers will be    131072 words long.
 Raffenetti 2 integral format.
 Two-electron integral symmetry is turned off.
 One-electron integrals computed using PRISM.
 NBasis=   126 RedAO= T EigKep=  1.07D-04  NBF=   126
 NBsUse=   126 1.00D-06 EigRej= -1.00D+00 NBFU=   126
 Initial guess from the checkpoint file:  "/scratch/bell/zhao922/YARP/paper-example/KHP-network/pp_0/IRC-folder/Gau-53339.chk"
 B after Tr=    -0.001645    0.000714   -0.000083
         Rot=    1.000000   -0.000385   -0.000093    0.000031 Ang=  -0.05 deg.
 ExpMin= 4.38D-02 ExpMax= 5.48D+03 ExpMxC= 8.25D+02 IAcc=3 IRadAn=         5 AccDes= 0.00D+00
 Harris functional with IExCor=  402 and IRadAn=       5 diagonalized for initial guess.
 HarFok:  IExCor=  402 AccDes= 0.00D+00 IRadAn=         5 IDoV= 1 UseB2=F ITyADJ=14
 ICtDFT=  3500011 ScaDFX=  1.000000  1.000000  1.000000  1.000000
 FoFCou: FMM=F IPFlag=           0 FMFlag=      100000 FMFlg1=           0
         NFxFlg=           0 DoJE=T BraDBF=F KetDBF=T FulRan=T
         wScrn=  0.000000 ICntrl=       500 IOpCl=  0 I1Cent=   200000004 NGrid=           0
         NMat0=    1 NMatS0=      1 NMatT0=    0 NMatD0=    1 NMtDS0=    0 NMtDT0=    0
 Symmetry not used in FoFCou.
 Keep R1 ints in memory in canonical form, NReq=47237243.
 Requested convergence on RMS density matrix=1.00D-08 within 128 cycles.
 Requested convergence on MAX density matrix=1.00D-06.
 Requested convergence on             energy=1.00D-06.
 No special actions if energy rises.
 SCF Done:  E(RB3LYP) =  -343.447127549     A.U. after   12 cycles
            NFock= 12  Conv=0.40D-08     -V/T= 2.0093
 DoSCS=F DFT=T ScalE2(SS,OS)=  1.000000  1.000000
 Range of M.O.s used for correlation:     1   126
 NBasis=   126 NAE=    24 NBE=    24 NFC=     0 NFV=     0
 NROrb=    126 NOA=    24 NOB=    24 NVA=   102 NVB=   102

 **** Warning!!: The largest alpha MO coefficient is  0.28625694D+02

 Symmetrizing basis deriv contribution to polar:
[...]
  10                   -0.38871   1.40325   1.32701  -0.66435  -1.00494
  11                   -0.39109   1.40324   1.31732  -0.65854  -1.00445
  12                   -0.39325   1.40330   1.30740  -0.65272  -1.00383
  13                   -0.39520   1.40340   1.29723  -0.64693  -1.00308
  14                   -0.39695   1.40354   1.28678  -0.64120  -1.00220
  15                   -0.39852   1.40371   1.27601  -0.63556  -1.00119
  16                   -0.39993   1.40390   1.26489  -0.63007  -1.00006
  17                   -0.40119   1.40409   1.25337  -0.62478  -0.99884
  18                   -0.40232   1.40429   1.24140  -0.61977  -0.99753
  19                   -0.40335   1.40448   1.22896  -0.61512  -0.99615
  20                   -0.40428   1.40466   1.21602  -0.61092  -0.99471
  21                   -0.40513   1.40484   1.20259  -0.60724  -0.99320
  22                   -0.40592   1.40500   1.18866  -0.60417  -0.99159
  23                   -0.40666   1.40515   1.17421  -0.60177  -0.98983
  24                   -0.40736   1.40528   1.15917  -0.60016  -0.98784
  25                   -0.40803   1.40540   1.14340  -0.59947  -0.98550
  26                   -0.40868   1.40550   1.12664  -0.59993  -0.98264
  27                   -0.40930   1.40560   1.10850  -0.60186  -0.97902
  28                   -0.40989   1.40568   1.08837  -0.60571  -0.97429
  29                   -0.41044   1.40575   1.06547  -0.61201  -0.96793
  30                   -0.41091   1.40582   1.03883  -0.62126  -0.95933
  31                   -0.41127   1.40588   1.00759  -0.63355  -0.94780
  32                   -0.41150   1.40594   0.97126  -0.64810  -0.93289
  33                   -0.41163   1.40598   0.92976  -0.66310  -0.91458
  34                   -0.41173   1.40603   0.88314  -0.67598  -0.89338
  35                   -0.41188   1.40609   0.83144  -0.68390  -0.87024
  36                   -0.41217   1.40617   0.77482  -0.68440  -0.84638
  37                   -0.41264   1.40627   0.71396  -0.67628  -0.82315
  38                   -0.41328   1.40638   0.64974  -0.66005  -0.80190
  39                   -0.41403   1.40647   0.58261  -0.63775  -0.78426
  40                   -0.41483   1.40651   0.51254  -0.61238  -0.77200
  41                   -0.41560   1.40652   0.43963  -0.58635  -0.76643
  42                   -0.41636   1.40650   0.36526  -0.56124  -0.76484
  43                   -0.41710   1.40647   0.29004  -0.53625  -0.76699
  44                   -0.41787   1.40646   0.21478  -0.51095  -0.77077
  45                   -0.41870   1.40647   0.13993  -0.48527  -0.77529
  46                   -0.41967   1.40655   0.06576  -0.46004  -0.78073
  47                   -0.42086   1.40672  -0.00733  -0.43759  -0.78849
  48                   -0.42242   1.40706  -0.07755  -0.42271  -0.80173
  49                   -0.42442   1.40769  -0.13967  -0.42014  -0.82352
  50                   -0.42653   1.40873  -0.18966  -0.42512  -0.85162
  51                   -0.42817   1.41027  -0.22883  -0.42877  -0.88196
  52                   -0.42883   1.41238  -0.25938  -0.42771  -0.91290
  53                   -0.42815   1.41503  -0.28340  -0.42203  -0.94403
  54                   -0.42605   1.41814  -0.30297  -0.41266  -0.97506
  55                   -0.42265   1.42156  -0.31977  -0.40050  -1.00565
  56                   -0.41823   1.42510  -0.33497  -0.38624  -1.03550
  57                   -0.41312   1.42859  -0.34930  -0.37039  -1.06431
  58                   -0.40767   1.43186  -0.36317  -0.35333  -1.09188
  59                   -0.40220   1.43479  -0.37679  -0.33535  -1.11808
  60                   -0.39695   1.43731  -0.39026  -0.31667  -1.14285
  61                   -0.39212   1.43937  -0.40367  -0.29745  -1.16623
  62                   -0.38781   1.44097  -0.41705  -0.27780  -1.18830
  63                   -0.38408   1.44212  -0.43046  -0.25780  -1.20918
  64                   -0.38097   1.44284  -0.44394  -0.23747  -1.22901
  65                   -0.37845   1.44315  -0.45754  -0.21681  -1.24793
  66                   -0.37651   1.44307  -0.47127  -0.19578  -1.26607
  67                   -0.37511   1.44262  -0.48517  -0.17436  -1.28357
  68                   -0.37423   1.44183  -0.49926  -0.15247  -1.30051
  69                   -0.37384   1.44069  -0.51355  -0.13006  -1.31699
  70                   -0.37395   1.43922  -0.52806  -0.10707  -1.33305
  71                   -0.37456   1.43741  -0.54279  -0.08344  -1.34875
  72                   -0.37571   1.43524  -0.55778  -0.05909  -1.36409
  73                   -0.37746   1.43270  -0.57302  -0.03398  -1.37908
  74                   -0.37991   1.42976  -0.58852  -0.00804  -1.39372
  75                   -0.38321   1.42638  -0.60430   0.01876  -1.40795
  76                   -0.38758   1.42250  -0.62032   0.04643  -1.42171
  77                   -0.39328   1.41806  -0.63650   0.07487  -1.43488
  78                   -0.40065   1.41300  -0.65261   0.10377  -1.44722
  79                   -0.40996   1.40731  -0.66815   0.13233  -1.45838
  80                   -0.42106   1.40113  -0.68234   0.15922  -1.46794
  81                   -0.43320   1.39473  -0.69446   0.18316  -1.47571
                          X12       Y12       Z12
   1                   -1.14735   0.97985  -1.39926
   2                   -1.13749   0.97136  -1.40102
   3                   -1.12791   0.96309  -1.40268
   4                   -1.11861   0.95506  -1.40422
   5                   -1.10960   0.94728  -1.40563
   6                   -1.10089   0.93979  -1.40691
   7                   -1.09249   0.93260  -1.40804
   8                   -1.08440   0.92575  -1.40903
   9                   -1.07662   0.91926  -1.40986
  10                   -1.06916   0.91315  -1.41054
  11                   -1.06202   0.90744  -1.41105
  12                   -1.05520   0.90215  -1.41139
  13                   -1.04869   0.89731  -1.41156
  14                   -1.04249   0.89291  -1.41158
  15                   -1.03659   0.88895  -1.41143
  16                   -1.03100   0.88543  -1.41114
  17                   -1.02571   0.88232  -1.41073
  18                   -1.02072   0.87957  -1.41022
  19                   -1.01601   0.87715  -1.40965
  20                   -1.01158   0.87499  -1.40905
  21                   -1.00739   0.87301  -1.40846
  22                   -1.00340   0.87116  -1.40791
  23                   -0.99955   0.86936  -1.40743
  24                   -0.99577   0.86755  -1.40702
  25                   -0.99198   0.86568  -1.40670
  26                   -0.98808   0.86370  -1.40646
  27                   -0.98397   0.86160  -1.40629
  28                   -0.97954   0.85939  -1.40616
  29                   -0.97471   0.85713  -1.40606
  30                   -0.96943   0.85500  -1.40590
  31                   -0.96381   0.85330  -1.40559
  32                   -0.95814   0.85248  -1.40500
  33                   -0.95290   0.85301  -1.40402
  34                   -0.94864   0.85531  -1.40252
  35                   -0.94583   0.85956  -1.40045
  36                   -0.94473   0.86561  -1.39784
  37                   -0.94528   0.87298  -1.39481
  38                   -0.94713   0.88103  -1.39153
  39                   -0.94984   0.88916  -1.38814
  40                   -0.95301   0.89696  -1.38478
  41                   -0.95639   0.90423  -1.38155
  42                   -0.95971   0.91109  -1.37837
  43                   -0.96314   0.91768  -1.37521
  44                   -0.96683   0.92447  -1.37189
  45                   -0.97096   0.93185  -1.36820
  46                   -0.97582   0.94038  -1.36383
  47                   -0.98192   0.95102  -1.35819
  48                   -0.99015   0.96534  -1.35026
  49                   -1.00122   0.98478  -1.33882
  50                   -1.01459   1.00858  -1.32365
  51                   -1.02911   1.03487  -1.30534
  52                   -1.04383   1.06211  -1.28467
  53                   -1.05809   1.08928  -1.26242
  54                   -1.07148   1.11588  -1.23917
  55                   -1.08383   1.14175  -1.21530
  56                   -1.09506   1.16683  -1.19106
  57                   -1.10520   1.19115  -1.16666
  58                   -1.11429   1.21469  -1.14225
  59                   -1.12241   1.23748  -1.11800
  60                   -1.12964   1.25952  -1.09401
  61                   -1.13606   1.28086  -1.07036
  62                   -1.14173   1.30156  -1.04708
  63                   -1.14673   1.32170  -1.02413
  64                   -1.15112   1.34134  -1.00146
  65                   -1.15493   1.36057  -0.97901
  66                   -1.15823   1.37944  -0.95667
  67                   -1.16103   1.39803  -0.93435
  68                   -1.16339   1.41636  -0.91194
  69                   -1.16532   1.43447  -0.88936
  70                   -1.16685   1.45239  -0.86652
  71                   -1.16802   1.47011  -0.84335
  72                   -1.16885   1.48765  -0.81978
  73                   -1.16939   1.50500  -0.79575
  74                   -1.16970   1.52215  -0.77122
  75                   -1.16984   1.53907  -0.74618
  76                   -1.16993   1.55570  -0.72064
  77                   -1.17015   1.57195  -0.69474
  78                   -1.17072   1.58759  -0.66886
  79                   -1.17198   1.60224  -0.64379
  80                   -1.17419   1.61533  -0.62086
  81                   -1.17737   1.62647  -0.60124
 --------------------------------------------------------------------------
 
 Total number of points:                   80
 Total number of gradient calculations:    81
 Total number of Hessian calculations:     81
 IRC-IRC-IRC-IRC-IRC-IRC-IRC-IRC-IRC-IRC-IRC-IRC-IRC-IRC-IRC-IRC-IRC-IRC
                          Input orientation:                          
 ---------------------------------------------------------------------
 Center     Atomic      Atomic             Coordinates (Angstroms)
 Number     Number       Type             X           Y           Z
 ---------------------------------------------------------------------
      1          6           0        0.106452    1.344049    0.290627
      2          6           0       -0.926890    0.777258   -0.352792
      3          6           0       -1.843394   -0.114805    0.362160
      4          8           0        1.616018   -0.528274   -0.068810
      5          8           0        3.066605   -0.527924   -0.090274
      6          8           0       -2.876329   -0.563417   -0.107736
      7          1           0        3.255619   -1.271658    0.510023
      8          1           0        0.792319    2.032638   -0.192709
      9          1           0        0.291515    1.140720    1.342226
     10          1           0       -1.547715   -0.357549    1.406882
     11          1           0        1.406204   -0.710610   -1.004527
     12          1           0       -1.147345    0.979852   -1.399258
 ---------------------------------------------------------------------
                    Distance matrix (angstroms):
                    1          2          3          4          5
     1  C    0.000000
     2  C    1.342772   0.000000
     3  C    2.436242   1.465235   0.000000
     4  O    2.431785   2.872532   3.510588   0.000000
     5  O    3.523049   4.209563   4.948077   1.450746   0.000000
     6  O    3.562879   2.378607   1.220250   4.492653   5.943066
     7  H    4.099672   4.736654   5.230689   1.891020   0.974281
     8  H    1.085440   2.134780   3.444761   2.692973   3.426273
     9  H    1.086946   2.118891   2.663590   2.555557   3.540841
    10  H    2.622543   2.183956   1.112562   3.495143   4.854118
    11  H    2.754706   2.842858   3.575291   0.976133   1.904249
    12  H    2.135499   1.088456   2.187545   3.417705   4.663068
                    6          7          8          9         10
     6  O    0.000000
     7  H    6.203548   0.000000
     8  H    4.495075   4.180915   0.000000
     9  H    3.878364   3.911270   1.844545   0.000000
    10  H    2.025256   4.971114   3.707755   2.373133   0.000000
    11  H    4.377898   2.455397   2.925972   3.190173   3.829515
    12  H    2.653129   5.301013   2.515237   3.100311   3.134224
                   11         12
    11  H    0.000000
    12  H    3.087731   0.000000
 Symmetry turned off by external request.
 Stoichiometry    C3H6O3
 Framework group  C1[X(C3H6O3)]
 Deg. of freedom    30
 Full point group                 C1      NOp   1
 Rotational constants (GHZ):           8.1634237           1.2456582           1.1360249

 **********************************************************************

            Population analysis using the SCF Density.

 **********************************************************************

 Alpha  occ. eigenvalues --  -19.24283 -19.23891 -19.15249 -10.27885 -10.22813
 Alpha  occ. eigenvalues --  -10.20792  -1.14810  -1.04407  -0.92974  -0.80638
 Alpha  occ. eigenvalues --   -0.65213  -0.57711  -0.56178  -0.52271  -0.47992
 Alpha  occ. eigenvalues --   -0.47828  -0.45287  -0.42102  -0.39867  -0.39688
 Alpha  occ. eigenvalues --   -0.35306  -0.31778  -0.27821  -0.26097
 Alpha virt. eigenvalues --   -0.06663  -0.01965  -0.00156   0.02114   0.02383
 Alpha virt. eigenvalues --    0.03337   0.04027   0.06333   0.06970   0.07584
 Alpha virt. eigenvalues --    0.08842   0.09597   0.11462   0.12053   0.14044
 Alpha virt. eigenvalues --    0.14672   0.15249   0.17442   0.19029   0.20166
 Alpha virt. eigenvalues --    0.21547   0.21630   0.23617   0.24295   0.25918
 Alpha virt. eigenvalues --    0.26395   0.27159   0.28427   0.30245   0.31583
 Alpha virt. eigenvalues --    0.32962   0.33544   0.36883   0.37919   0.41045
 Alpha virt. eigenvalues --    0.43559   0.61167   0.67775   0.70657   0.73085
 Alpha virt. eigenvalues --    0.75576   0.80029   0.80812   0.87182   0.91579
 Alpha virt. eigenvalues --    0.93630   0.95202   0.98407   1.00216   1.03448
 Alpha virt. eigenvalues --    1.04759   1.06898   1.07951   1.08295   1.10043
 Alpha virt. eigenvalues --    1.16708   1.18736   1.23365   1.25046   1.29527
 Alpha virt. eigenvalues --    1.29870   1.33472   1.34410   1.38492   1.44908
 Alpha virt. eigenvalues --    1.46444   1.51089   1.55360   1.56487   1.62295
 Alpha virt. eigenvalues --    1.64878   1.65943   1.71848   1.78192   1.80689
 Alpha virt. eigenvalues --    1.84001   1.84633   1.93861   1.95350   2.01559
 Alpha virt. eigenvalues --    2.08297   2.15383   2.19830   2.27609   2.29942
 Alpha virt. eigenvalues --    2.34914   2.42595   2.44785   2.47416   2.51989
 Alpha virt. eigenvalues --    2.59633   2.63838   2.88687   2.98407   3.09164
 Alpha virt. eigenvalues --    3.12036   3.74278   4.07993   4.14093   4.25053
 Alpha virt. eigenvalues --    4.32230   4.44405
          Condensed to atoms (all electrons):
               1          2          3          4          5          6
     1  C    5.930895  -0.397391   0.151952  -0.037662   0.055020   0.053318
     2  C   -0.397391   6.427298   0.048040   0.002521  -0.004501  -0.196933
     3  C    0.151952   0.048040   4.909035  -0.030243  -0.009105   0.453571
     4  O   -0.037662   0.002521  -0.030243   8.316489  -0.009720  -0.001566
     5  O    0.055020  -0.004501  -0.009105  -0.009720   8.347645  -0.000026
     6  O    0.053318  -0.196933   0.453571  -0.001566  -0.000026   8.161925
     7  H   -0.002370   0.001722  -0.000365  -0.019566   0.176053  -0.000000
     8  H    0.354798  -0.007017   0.000160  -0.009480   0.001473  -0.000413
     9  H    0.400893  -0.072629   0.006081  -0.012661   0.000544   0.000593
    10  H    0.089434  -0.262332   0.443586  -0.000698  -0.000121  -0.059887
    11  H   -0.028467   0.034620   0.005109   0.199217  -0.044219  -0.000186
    12  H   -0.042788   0.352024  -0.010924  -0.000750  -0.000135  -0.002866
               7          8          9         10         11         12
     1  C   -0.002370   0.354798   0.400893   0.089434  -0.028467  -0.042788
     2  C    0.001722  -0.007017  -0.072629  -0.262332   0.034620   0.352024
     3  C   -0.000365   0.000160   0.006081   0.443586   0.005109  -0.010924
     4  O   -0.019566  -0.009480  -0.012661  -0.000698   0.199217  -0.000750
     5  O    0.176053   0.001473   0.000544  -0.000121  -0.044219  -0.000135
     6  O   -0.000000  -0.000413   0.000593  -0.059887  -0.000186  -0.002866
     7  H    0.371577  -0.000021  -0.000027   0.000000   0.001336  -0.000000
     8  H   -0.000021   0.478338  -0.029670  -0.000114   0.000293  -0.003979
     9  H   -0.000027  -0.029670   0.484097   0.005073   0.000748   0.003752
    10  H    0.000000  -0.000114   0.005073   0.627165   0.000050   0.003418
    11  H    0.001336   0.000293   0.000748   0.000050   0.353532   0.000012
    12  H   -0.000000  -0.003979   0.003752   0.003418   0.000012   0.498851
 Mulliken charges:
               1
     1  C   -0.527630
     2  C    0.074578
     3  C    0.033103
     4  O   -0.395881
     5  O   -0.512909
     6  O   -0.407528
     7  H    0.471661
     8  H    0.215634
     9  H    0.213207
    10  H    0.154425
    11  H    0.477955
    12  H    0.203387
 Sum of Mulliken charges =  -0.00000
 Mulliken charges with hydrogens summed into heavy atoms:
               1
     1  C   -0.098790
     2  C    0.277965
     3  C    0.187527
     4  O    0.082074
     5  O   -0.041249
     6  O   -0.407528
 APT charges:
               1
     1  C   -0.943653
     2  C   -0.221833
     3  C   -0.512913
     4  O   -0.365569
     5  O   -0.905669
     6  O   -0.052294
     7  H    0.732259
     8  H    0.510687
     9  H    0.387682
    10  H    0.318872
    11  H    0.583185
    12  H    0.469245
 Sum of APT charges =  -0.00000
 APT charges with hydrogens summed into heavy atoms:
               1
     1  C   -0.045284
     2  C    0.247412
     3  C   -0.194041
     4  O    0.217616
     5  O   -0.173409
     6  O   -0.052294
 Electronic spatial extent (au):  <R**2>=            957.8477
 Charge=              0.0000 electrons
 Dipole moment (field-independent basis, Debye):
    X=              3.8022    Y=              0.0720    Z=              0.3920  Tot=              3.8231
 Quadrupole moment (field-independent basis, Debye-Ang):
   XX=            -48.2321   YY=            -33.9084   ZZ=            -32.3323
   XY=             -7.0524   XZ=              0.3320   YZ=             -0.9301
 Traceless Quadrupole moment (field-independent basis, Debye-Ang):
   XX=            -10.0744   YY=              4.2492   ZZ=              5.8253
   XY=             -7.0524   XZ=              0.3320   YZ=             -0.9301
 Octapole moment (field-independent basis, Debye-Ang**2):
  XXX=             55.1758  YYY=            -12.0833  ZZZ=             -2.7753  XYY=             16.2912
  XXY=             -9.6597  XXZ=             13.7475  XZZ=              5.5043  YZZ=             -3.7944
  YYZ=             -0.6602  XYZ=             -2.5363
 Hexadecapole moment (field-independent basis, Debye-Ang**3):
 XXXX=          -1027.4570 YYYY=           -175.2656 ZZZZ=            -69.9001 XXXY=            -64.3497
 XXXZ=             37.6703 YYYX=             18.9497 YYYZ=             -6.5214 ZZZX=              5.5517
 ZZZY=             -2.4963 XXYY=           -162.0430 XXZZ=           -158.2328 YYZZ=            -39.3782
 XXYZ=            -18.4103 YYXZ=              8.2530 ZZXY=              4.0114
 N-N= 2.155877940296D+02 E-N=-1.236008989806D+03  KE= 3.403778062730D+02
  Exact polarizability:   0.000   0.000   0.000   0.000   0.000   0.000
 Approx polarizability: 112.915  24.416  65.088  16.994   4.252  65.058

 This type of calculation cannot be archived.


 IF YOU GIVE A BOY AND A PIG EVERYTHING THEY WANT,
 YOU'LL GET A BAD BOY AND A GOOD PIG.
 Job cpu time:       0 days  5 hours 40 minutes 33.6 seconds.
 Elapsed time:       0 days  0 hours 21 minutes 49.6 seconds.
 File lengths (MBytes):  RWF=     28 Int=      0 D2E=      0 Chk=      4 Scr=      1
 Normal termination of Gaussian 16 at Wed Dec 23 22:38:56 2020.
