 Entering Gaussian System, Link 0=g16
 Initial command:
 /apps/cent7/gaussian/g16-B.01/g16-haswell/g16/l1.exe "/scratch/bell/zhao922/YARP/paper-example/KHP-network/pp_0/IRC-folder/Gau-35812.inp" -scrdir="/scratch/bell/zhao922/YARP/paper-example/KHP-network/pp_0/IRC-folder/"
 Entering Link 1 = /apps/cent7/gaussian/g16-B.01/g16-haswell/g16/l1.exe PID=     35814.
  
 Copyright (c) 1988-2017, Gaussian, Inc.  All Rights Reserved.
  
 This is part of the Gaussian(R) 16 program.  It is based on
 the Gaussian(R) 09 system (copyright 2009, Gaussian, Inc.),
 the Gaussian(R) 03 system (copyright 2003, Gaussian, Inc.),
 the Gaussian(R) 98 system (copyright 1998, Gaussian, Inc.),
 the Gaussian(R) 94 system (copyright 1995, Gaussian, Inc.),
 the Gaussian 92(TM) system (copyright 1992, Gaussian, Inc.),
 the Gaussian 90(TM) system (copyright 1990, Gaussian, Inc.),
 the Gaussian 88(TM) system (copyright 1988, Gaussian, Inc.),
 the Gaussian 86(TM) system (copyright 1986, Carnegie Mellon
 University), and the Gaussian 82(TM) system (copyright 1983,
 Carnegie Mellon University). Gaussian is a federally registered
 trademark of Gaussian, Inc.
  
 This software contains proprietary and confidential information,
 including trade secrets, belonging to Gaussian, Inc.
  
 This software is provided under written license and may be
 used, copied, transmitted, or stored only in accord with that
 written license.
  
 The following legend is applicable only to US Government
 contracts under FAR:
  
                    RESTRICTED RIGHTS LEGEND
  
 Use, reproduction and disclosure by the US Government is
 subject to restrictions as set forth in subparagraphs (a)
 and (c) of the Commercial Computer Software - Restricted
 Rights clause in FAR 52.227-19.
  
 Gaussian, Inc.
 340 Quinnipiac St., Bldg. 40, Wallingford CT 06492
  
  
 ---------------------------------------------------------------
 Warning -- This program may not be used in any manner that
 competes with the business of Gaussian, Inc. or will provide
 assistance to any competitor of Gaussian, Inc.  The licensee
 of this program is prohibited from giving any competitor of
 Gaussian, Inc. access to this program.  By using this program,
 the user acknowledges that Gaussian, Inc. is engaged in the
 business of creating and licensing software in the field of
 computational chemistry and represents and warrants to the
 licensee that it is not a competitor of Gaussian, Inc. and that
 it will not use this program in any manner prohibited above.
 ---------------------------------------------------------------
  

 Cite this work as:
 Gaussian 16, Revision B.01,
 M. J. Frisch, G. W. Trucks, H. B. Schlegel, G. E. Scuseria, 
 M. A. Robb, J. R. Cheeseman, G. Scalmani, V. Barone, 
 G. A. Petersson, H. Nakatsuji, X. Li, M. Caricato, A. V. Marenich, 
 J. Bloino, B. G. Janesko, R. Gomperts, B. Mennucci, H. P. Hratchian, 
 J. V. Ortiz, A. F. Izmaylov, J. L. Sonnenberg, D. Williams-Young, 
 F. Ding, F. Lipparini, F. Egidi, J. Goings, B. Peng, A. Petrone, 
 T. Henderson, D. Ranasinghe, V. G. Zakrzewski, J. Gao, N. Rega, 
 G. Zheng, W. Liang, M. Hada, M. Ehara, K. Toyota, R. Fukuda, 
 J. Hasegawa, M. Ishida, T. Nakajima, Y. Honda, O. Kitao, H. Nakai, 
 T. Vreven, K. Throssell, J. A. Montgomery, Jr., J. E. Peralta, 
 F. Ogliaro, M. J. Bearpark, J. J. Heyd, E. N. Brothers, K. N. Kudin, 
 V. N. Staroverov, T. A. Keith, R. Kobayashi, J. Normand, 
 K. Raghavachari, A. P. Rendell, J. C. Burant, S. S. Iyengar, 
 J. Tomasi, M. Cossi, J. M. Millam, M. Klene, C. Adamo, R. Cammi, 
 J. W. Ochterski, R. L. Martin, K. Morokuma, O. Farkas, 
 J. B. Foresman, and D. J. Fox, Gaussian, Inc., Wallingford CT, 2016.
 
 ******************************************
 Gaussian 16:  ES64L-G16RevB.01 20-Dec-2017
                23-Dec-2020 
 ******************************************
 %NProcShared=16
 Will use up to   16 processors via shared memory.
 %Mem=6GB
 ----------------------------------------------------------------------
 # B3LYP/6-31+G* IRC=(CALCALL, maxpoints=40, StepSize=15, maxcyc=100, R
 eport=Cartesians)
 ----------------------------------------------------------------------
 1/6=100,10=4,18=10,26=3,38=1,39=15,42=40,44=3,71=1,129=10,172=1/1,23;
 2/12=2,17=6,18=5,29=1,40=1/2;
 3/5=1,6=6,7=11,11=2,25=1,30=1,71=2,74=-5,140=1/1,2,3;
 4//1;
 5/5=2,38=5/2;
 8/6=4,10=90,11=11/1;
 11/6=1,8=1,9=11,15=111,16=1/1,2,10;
 10/6=1,13=1/2;
 6/7=2,8=2,9=2,10=2,18=1,28=1/1;
 7/10=1,25=1/1,2,3,16;
 1/6=100,10=4,18=10,26=3,39=15,42=40,44=3,71=1,129=10/23(2);
 2/29=1/2;
 99/5=20/99;
 2/29=1/2;
 3/5=1,6=6,7=11,11=2,25=1,30=1,71=2,74=-5,140=1/1,2,3;
 4/5=5,16=3,69=1/1;
 5/5=2,38=5/2;
 8/6=4,10=90,11=11/1;
 11/6=1,8=1,9=11,15=111,16=1/1,2,10;
 10/6=1,13=1/2;
 7/10=1,25=1/1,2,3,16;
 1/6=100,10=4,18=10,26=3,39=15,42=40,44=3,71=1,129=10/23(-8);
 2/29=1/2;
 6/7=2,8=2,9=2,10=2,18=1,19=2,28=1/1;
 99/5=20/99;
 ----------
 pp_8_1 IRC
 ----------
 Symbolic Z-matrix:
 Charge =  0 Multiplicity = 1
 C                     0.25923   0.59914  -0.80425 
 C                    -0.78625   0.91428   0.16548 
 C                    -1.92222   0.01248   0.33028 
 O                     1.25024   0.19544   0.32938 
 O                     2.5289   -0.70675   0.09254 
 O                    -2.04498  -1.07938  -0.21587 
 H                     3.20315  -0.04612   0.3424 
 H                     0.09042  -0.29266  -1.40699 
 H                     0.7372    1.41484  -1.34257 
 H                    -2.70874   0.37723   1.02348 
 H                    -0.88279   1.93356   0.53109 
 H                     0.38294   0.1833    1.05514 
 
 IRC-IRC-IRC-IRC-IRC-IRC-IRC-IRC-IRC-IRC-IRC-IRC-IRC-IRC-IRC-IRC-IRC-IRC
 ------------------------------------------------------------------------
 INPUT DATA FOR L123
 ------------------------------------------------------------------------
 GENERAL PARAMETERS:
 Follow reaction path in both directions.
 Maximum points per path      =  40
 Step size                    =   0.150 bohr
 Integration scheme           = HPC                                 
    Redo corrector integration= Yes                                 
    DWI Weight Power          =  2
    DWI will use Hessian update vectors when possible.
    Max correction cycles     = 100
 Initial Hessian              = CalcFC
 Hessian evaluation           = Analytic at all predictor steps
                              = Update at all corrector steps
 Hessian updating method      = Bofill                              
 ------------------------------------------------------------------------
 IRC-IRC-IRC-IRC-IRC-IRC-IRC-IRC-IRC-IRC-IRC-IRC-IRC-IRC-IRC-IRC-IRC-IRC
                          Input orientation:                          
 ---------------------------------------------------------------------
 Center     Atomic      Atomic             Coordinates (Angstroms)
 Number     Number       Type             X           Y           Z
 ---------------------------------------------------------------------
      1          6           0        0.259226    0.599137   -0.804253
      2          6           0       -0.786246    0.914280    0.165484
      3          6           0       -1.922215    0.012477    0.330281
      4          8           0        1.250236    0.195442    0.329375
      5          8           0        2.528897   -0.706752    0.092540
      6          8           0       -2.044980   -1.079381   -0.215867
      7          1           0        3.203148   -0.046118    0.342400
      8          1           0        0.090421   -0.292655   -1.406990
      9          1           0        0.737195    1.414840   -1.342571
     10          1           0       -2.708735    0.377234    1.023476
     11          1           0       -0.882793    1.933559    0.531088
     12          1           0        0.382944    0.183303    1.055143
 ---------------------------------------------------------------------
                    Distance matrix (angstroms):
                    1          2          3          4          5
     1  C    0.000000
     2  C    1.460382   0.000000
     3  C    2.527849   1.459737   0.000000
     4  O    1.558904   2.165836   3.177723   0.000000
     5  O    2.767849   3.690967   4.515109   1.582725   0.000000
     6  O    2.910839   2.388415   1.226989   3.575040   4.599382
     7  H    3.224569   4.107180   5.125712   1.967838   0.976464
     8  H    1.089532   2.167467   2.676176   2.144382   2.892444
     9  H    1.087939   2.201287   3.440569   2.132029   3.125843
    10  H    3.492653   2.172679   1.110036   4.023466   5.429038
    11  H    2.206360   1.087160   2.193462   2.758904   4.336265
    12  H    1.909340   1.640983   2.422471   1.130965   2.514740
                    6          7          8          9         10
     6  O    0.000000
     7  H    5.377931   0.000000
     8  H    2.568589   3.579136   0.000000
     9  H    3.902704   3.324823   1.827021   0.000000
    10  H    2.024418   5.966025   3.767120   4.306883   0.000000
    11  H    3.314578   4.544187   3.107945   2.530618   2.449216
    12  H    3.017392   2.917908   2.524719   2.718678   3.097917
                   11         12
    11  H    0.000000
    12  H    2.222638   0.000000
 Symmetry turned off by external request.
 Stoichiometry    C3H6O3
 Framework group  C1[X(C3H6O3)]
 Deg. of freedom    30
 Full point group                 C1      NOp   1
 Rotational constants (GHZ):           7.6746341           1.7770890           1.6121304
 Standard basis: 6-31+G(d) (6D, 7F)
   126 basis functions,   216 primitive gaussians,   126 cartesian basis functions
    24 alpha electrons       24 beta electrons
       nuclear repulsion energy       232.7811790786 Hartrees.
 NAtoms=   12 NActive=   12 NUniq=   12 SFac= 1.00D+00 NAtFMM=   60 NAOKFM=F Big=F
 Integral buffers will be    131072 words long.
 Raffenetti 2 integral format.
 Two-electron integral symmetry is turned off.
 One-electron integrals computed using PRISM.
 NBasis=   126 RedAO= T EigKep=  1.09D-04  NBF=   126
 NBsUse=   126 1.00D-06 EigRej= -1.00D+00 NBFU=   126
 ExpMin= 4.38D-02 ExpMax= 5.48D+03 ExpMxC= 8.25D+02 IAcc=3 IRadAn=         5 AccDes= 0.00D+00
 Harris functional with IExCor=  402 and IRadAn=       5 diagonalized for initial guess.
 HarFok:  IExCor=  402 AccDes= 0.00D+00 IRadAn=         5 IDoV= 1 UseB2=F ITyADJ=14
 ICtDFT=  3500011 ScaDFX=  1.000000  1.000000  1.000000  1.000000
 FoFCou: FMM=F IPFlag=           0 FMFlag=      100000 FMFlg1=           0
         NFxFlg=           0 DoJE=T BraDBF=F KetDBF=T FulRan=T
         wScrn=  0.000000 ICntrl=       500 IOpCl=  0 I1Cent=   200000004 NGrid=           0
         NMat0=    1 NMatS0=      1 NMatT0=    0 NMatD0=    1 NMtDS0=    0 NMtDT0=    0
 Symmetry not used in FoFCou.
 Keep R1 ints in memory in canonical form, NReq=47237243.
 Requested convergence on RMS density matrix=1.00D-08 within 128 cycles.
 Requested convergence on MAX density matrix=1.00D-06.
 Requested convergence on             energy=1.00D-06.
 No special actions if energy rises.
 EnCoef did     1 forward-backward iterations
 SCF Done:  E(RB3LYP) =  -343.409710595     A.U. after   15 cycles
            NFock= 15  Conv=0.79D-08     -V/T= 2.0092
 DoSCS=F DFT=T ScalE2(SS,OS)=  1.000000  1.000000
 Range of M.O.s used for correlation:     1   126
 NBasis=   126 NAE=    24 NBE=    24 NFC=     0 NFV=     0
 NROrb=    126 NOA=    24 NOB=    24 NVA=   102 NVB=   102

 **** Warning!!: The largest alpha MO coefficient is  0.29234441D+02

 Symmetrizing basis deriv contribution to polar:
 IMax=3 JMax=2 DiffMx= 0.00D+00
 G2DrvN: will do    13 centers at a time, making    1 passes.
 Calling FoFCou, ICntrl=  3107 FMM=F I1Cent=   0 AccDes= 0.00D+00.
 End of G2Drv F.D. properties file   721 does not exist.
 End of G2Drv F.D. properties file   722 does not exist.
 End of G2Drv F.D. properties file   788 does not exist.
          IDoAtm=111111111111
          Differentiating once with respect to nuclear coordinates.
 Keep R1 ints in memory in canonical form, NReq=47193265.
          There are    39 degrees of freedom in the 1st order CPHF.  IDoFFX=6 NUNeed=     0.
     33 vectors produced by pass  0 Test12= 6.28D-15 2.56D-09 XBig12= 2.26D-01 2.22D-01.
 AX will form    33 AO Fock derivatives at one time.
     33 vectors produced by pass  1 Test12= 6.28D-15 2.56D-09 XBig12= 1.64D-02 2.12D-02.
     33 vectors produced by pass  2 Test12= 6.28D-15 2.56D-09 XBig12= 1.56D-04 2.38D-03.
     33 vectors produced by pass  3 Test12= 6.28D-15 2.56D-09 XBig12= 6.35D-07 1.56D-04.
     33 vectors produced by pass  4 Test12= 6.28D-15 2.56D-09 XBig12= 1.39D-09 5.26D-06.
     29 vectors produced by pass  5 Test12= 6.28D-15 2.56D-09 XBig12= 1.43D-12 1.92D-07.
      6 vectors produced by pass  6 Test12= 6.28D-15 2.56D-09 XBig12= 1.37D-15 4.98D-09.
 InvSVY:  IOpt=1 It=  1 EMax= 1.78D-15
 Solved reduced A of dimension   200 with    33 vectors.
 End of Minotr F.D. properties file   721 does not exist.
 End of Minotr F.D. properties file   722 does not exist.
 End of Minotr F.D. properties file   788 does not exist.

 **********************************************************************

            Population analysis using the SCF Density.

 **********************************************************************

 Alpha  occ. eigenvalues --  -19.27977 -19.22692 -19.14355 -10.27704 -10.27480
 Alpha  occ. eigenvalues --  -10.21371  -1.11594  -1.03580  -0.97916  -0.78567
 Alpha  occ. eigenvalues --   -0.68502  -0.59588  -0.54215  -0.53363  -0.48771
 Alpha  occ. eigenvalues --   -0.48458  -0.44759  -0.42798  -0.40135  -0.39115
 Alpha  occ. eigenvalues --   -0.35497  -0.33431  -0.26287  -0.25464
 Alpha virt. eigenvalues --   -0.09934  -0.01022   0.00127   0.01875   0.02415
 Alpha virt. eigenvalues --    0.02744   0.04543   0.06193   0.06950   0.07155
 Alpha virt. eigenvalues --    0.09040   0.10500   0.11359   0.11884   0.12871
 Alpha virt. eigenvalues --    0.15738   0.16304   0.18509   0.18774   0.19660
 Alpha virt. eigenvalues --    0.21235   0.22339   0.23772   0.24962   0.26180
 Alpha virt. eigenvalues --    0.26611   0.27136   0.27435   0.29392   0.32159
 Alpha virt. eigenvalues --    0.32900   0.33577   0.35346   0.38890   0.39975
 Alpha virt. eigenvalues --    0.47155   0.61852   0.65749   0.67177   0.67893
 Alpha virt. eigenvalues --    0.72130   0.75627   0.81142   0.84665   0.86944
 Alpha virt. eigenvalues --    0.90923   0.95159   0.97529   0.99274   1.03608
 Alpha virt. eigenvalues --    1.05942   1.07880   1.08555   1.11345   1.13204
 Alpha virt. eigenvalues --    1.21010   1.22460   1.24024   1.27246   1.28570
 Alpha virt. eigenvalues --    1.30072   1.32769   1.39690   1.42374   1.46702
 Alpha virt. eigenvalues --    1.51137   1.54092   1.60093   1.66099   1.66857
 Alpha virt. eigenvalues --    1.71333   1.72410   1.77235   1.79131   1.83227
 Alpha virt. eigenvalues --    1.84313   1.86415   1.91460   1.99159   2.05277
 Alpha virt. eigenvalues --    2.09282   2.12151   2.14263   2.23223   2.31647
 Alpha virt. eigenvalues --    2.35703   2.38330   2.46552   2.49710   2.50916
 Alpha virt. eigenvalues --    2.61529   2.66545   2.84303   2.95790   3.03786
 Alpha virt. eigenvalues --    3.11574   3.85874   4.12876   4.14336   4.24172
 Alpha virt. eigenvalues --    4.39460   4.52094
          Condensed to atoms (all electrons):
               1          2          3          4          5          6
     1  C    5.729870  -0.494086   0.138409   0.171814   0.029429   0.073074
     2  C   -0.494086   7.265513  -0.201620  -0.430037   0.048862  -0.236204
     3  C    0.138409  -0.201620   5.046002   0.011236  -0.012361   0.455158
     4  O    0.171814  -0.430037   0.011236   8.705570  -0.148080   0.010395
     5  O    0.029429   0.048862  -0.012361  -0.148080   8.409653  -0.000903
     6  O    0.073074  -0.236204   0.455158   0.010395  -0.000903   8.203807
     7  H    0.003549  -0.003215   0.000196   0.008046   0.157138   0.000023
     8  H    0.409317  -0.056043  -0.001377  -0.050227   0.011655   0.004817
     9  H    0.376569  -0.017119   0.004479  -0.046241  -0.001409   0.000494
    10  H    0.044549  -0.224530   0.450922   0.000634   0.000059  -0.065857
    11  H    0.003578   0.283763   0.009200   0.010911   0.000155   0.004494
    12  H   -0.155782   0.410166  -0.037028  -0.067959   0.030114  -0.006549
               7          8          9         10         11         12
     1  C    0.003549   0.409317   0.376569   0.044549   0.003578  -0.155782
     2  C   -0.003215  -0.056043  -0.017119  -0.224530   0.283763   0.410166
     3  C    0.000196  -0.001377   0.004479   0.450922   0.009200  -0.037028
     4  O    0.008046  -0.050227  -0.046241   0.000634   0.010911  -0.067959
     5  O    0.157138   0.011655  -0.001409   0.000059   0.000155   0.030114
     6  O    0.000023   0.004817   0.000494  -0.065857   0.004494  -0.006549
     7  H    0.377344  -0.000213   0.000273  -0.000000   0.000022  -0.000387
     8  H   -0.000213   0.449782  -0.029756   0.000248   0.002339   0.003487
     9  H    0.000273  -0.029756   0.493424  -0.000074  -0.003334   0.006667
    10  H   -0.000000   0.000248  -0.000074   0.640720   0.001429  -0.001074
    11  H    0.000022   0.002339  -0.003334   0.001429   0.483641  -0.005804
    12  H   -0.000387   0.003487   0.006667  -0.001074  -0.005804   0.433870
 Mulliken charges:
               1
     1  C   -0.330292
     2  C   -0.345448
     3  C    0.136783
     4  O   -0.176063
     5  O   -0.524311
     6  O   -0.442750
     7  H    0.457224
     8  H    0.255971
     9  H    0.216027
    10  H    0.152975
    11  H    0.209605
    12  H    0.390279
 Sum of Mulliken charges =  -0.00000
 Mulliken charges with hydrogens summed into heavy atoms:
               1
     1  C    0.141706
     2  C   -0.135843
     3  C    0.289758
     4  O    0.214216
     5  O   -0.067088
     6  O   -0.442750
 APT charges:
               1
     1  C   -0.936533
     2  C   -0.475258
     3  C   -0.349061
     4  O   -0.039938
     5  O   -0.922437
     6  O   -0.378151
     7  H    0.755831
     8  H    0.403447
     9  H    0.540543
    10  H    0.519126
    11  H    0.518168
    12  H    0.364264
 Sum of APT charges =  -0.00000
 APT charges with hydrogens summed into heavy atoms:
               1
     1  C    0.007457
     2  C    0.042910
     3  C    0.170065
     4  O    0.324325
     5  O   -0.166606
     6  O   -0.378151
 Electronic spatial extent (au):  <R**2>=            730.4988
 Charge=             -0.0000 electrons
 Dipole moment (field-independent basis, Debye):
    X=              2.3247    Y=              4.0349    Z=              0.6901  Tot=              4.7076
 Quadrupole moment (field-independent basis, Debye-Ang):
   XX=            -35.8313   YY=            -39.7640   ZZ=            -34.5584
   XY=             -1.1735   XZ=             -1.2902   YZ=             -1.0256
 Traceless Quadrupole moment (field-independent basis, Debye-Ang):
   XX=              0.8866   YY=             -3.0461   ZZ=              2.1595
   XY=             -1.1735   XZ=             -1.2902   YZ=             -1.0256
 Octapole moment (field-independent basis, Debye-Ang**2):
  XXX=             43.0382  YYY=              2.5613  ZZZ=             -0.9370  XYY=              6.5916
  XXY=             18.8754  XXZ=             10.4022  XZZ=              3.5998  YZZ=             -0.9403
  YYZ=             -0.3531  XYZ=              0.1365
 Hexadecapole moment (field-independent basis, Debye-Ang**3):
 XXXX=           -557.0837 YYYY=           -159.2624 ZZZZ=            -92.1758 XXXY=              1.3827
 XXXZ=             11.4710 YYYX=             -1.7038 YYYZ=             -0.0079 ZZZX=              4.6457
 ZZZY=             -1.8104 XXYY=           -158.6424 XXZZ=           -124.5385 YYZZ=            -41.8077
 XXYZ=             -0.8789 YYXZ=             -3.7026 ZZXY=              2.9777
 N-N= 2.327811790786D+02 E-N=-1.269989738786D+03  KE= 3.402733557576D+02
  Exact polarizability:   0.000   0.000   0.000   0.000   0.000   0.000
 Approx polarizability: 196.990 -29.108  86.739  -2.104   8.562  65.097
 Calling FoFJK, ICntrl=    100127 FMM=F ISym2X=0 I1Cent= 0 IOpClX= 0 NMat=1 NMatS=1 NMatT=0.
 -------------------------------------------------------------------
 Center     Atomic                   Forces (Hartrees/Bohr)
 Number     Number              X              Y              Z
 -------------------------------------------------------------------
      1        6           0.000001651    0.000002734    0.000007272
      2        6          -0.000005199   -0.000001159    0.000001538
      3        6           0.000000345    0.000001136   -0.000000765
      4        8           0.000000514   -0.000007925   -0.000014450
      5        8           0.000003324    0.000002581    0.000004283
      6        8           0.000000261   -0.000001790   -0.000000948
      7        1           0.000000869    0.000000806    0.000001611
      8        1           0.000001589   -0.000000786    0.000000917
      9        1           0.000000618    0.000000315    0.000000186
     10        1          -0.000000265   -0.000001187   -0.000000470
     11        1          -0.000001119   -0.000000052   -0.000000530
     12        1          -0.000002589    0.000005327    0.000001358
 -------------------------------------------------------------------
 Cartesian Forces:  Max     0.000014450 RMS     0.000003561
 IRC-IRC-IRC-IRC-IRC-IRC-IRC-IRC-IRC-IRC-IRC-IRC-IRC-IRC-IRC-IRC-IRC-IRC
          ******** Start new reaction path calculation ********
 Supplied step size of   0.1500 bohr.
    Integration on MW PES will use step size of   0.1618 sqrt(amu)*bohr.
 Point Number:   0          Path Number:   1
 Calculating another point on the path.
 IRC-IRC-IRC-IRC-IRC-IRC-IRC-IRC-IRC-IRC-IRC-IRC-IRC-IRC-IRC-IRC-IRC-IRC
                          Input orientation:                          
 ---------------------------------------------------------------------
 Center     Atomic      Atomic             Coordinates (Angstroms)
 Number     Number       Type             X           Y           Z
 ---------------------------------------------------------------------
      1          6           0        0.272229    0.637074   -0.802892
      2          6           0       -0.773242    0.951493    0.172491
      3          6           0       -1.914157    0.050901    0.332125
      4          8           0        1.261493    0.232542    0.330843
      5          8           0        2.535658   -0.665378    0.093940
      6          8           0       -2.035862   -1.039707   -0.213605
      7          1           0        3.211199   -0.006187    0.343828
      8          1           0        0.098802   -0.253035   -1.406705
      9          1           0        0.744095    1.454701   -1.343780
     10          1           0       -2.699724    0.415646    1.026355
     11          1           0       -0.876328    1.973768    0.528953
     12          1           0        0.326045    0.264578    1.051329
 ---------------------------------------------------------------------
                    Distance matrix (angstroms):
                    1          2          3          4          5
     1  C    0.000000
     2  C    1.463981   0.000000
     3  C    2.532222   1.462271   0.000000
     4  O    1.558090   2.163818   3.180841   0.000000
     5  O    2.761124   3.683648   4.513386   1.576668   0.000000
     6  O    2.913097   2.389175   1.225585   3.575974   4.597119
     7  H    3.219674   4.101497   5.125688   1.964310   0.976388
     8  H    1.089477   2.169149   2.677296   2.146325   2.891406
     9  H    1.087994   2.203317   3.441746   2.136758   3.125936
    10  H    3.496809   2.174293   1.110004   4.025978   5.426531
    11  H    2.209015   1.087538   2.193912   2.764307   4.335434
    12  H    1.892032   1.566090   2.362503   1.181181   2.581435
                    6          7          8          9         10
     6  O    0.000000
     7  H    5.376853   0.000000
     8  H    2.568878   3.579430   0.000000
     9  H    3.902246   3.326984   1.826670   0.000000
    10  H    2.023923   5.965131   3.768112   4.307791   0.000000
    11  H    3.313147   4.545588   3.107460   2.530282   2.449474
    12  H    2.979903   2.982949   2.522200   2.706974   3.029640
                   11         12
    11  H    0.000000
    12  H    2.154045   0.000000
 Symmetry turned off by external request.
 Stoichiometry    C3H6O3
 Framework group  C1[X(C3H6O3)]
 Deg. of freedom    30
 Full point group                 C1      NOp   1
 Rotational constants (GHZ):           7.6858360           1.7779180           1.6135650
 Standard basis: 6-31+G(d) (6D, 7F)
   126 basis functions,   216 primitive gaussians,   126 cartesian basis functions
    24 alpha electrons       24 beta electrons
       nuclear repulsion energy       232.8153754246 Hartrees.
 NAtoms=   12 NActive=   12 NUniq=   12 SFac= 1.00D+00 NAtFMM=   60 NAOKFM=F Big=F
 Integral buffers will be    131072 words long.
 Raffenetti 2 integral format.
 Two-electron integral symmetry is turned off.
 One-electron integrals computed using PRISM.
 NBasis=   126 RedAO= T EigKep=  1.10D-04  NBF=   126
 NBsUse=   126 1.00D-06 EigRej= -1.00D+00 NBFU=   126
 Initial guess from the checkpoint file:  "/scratch/bell/zhao922/YARP/paper-example/KHP-network/pp_0/IRC-folder/Gau-35814.chk"
 B after Tr=     0.015881    0.075035    0.003927
         Rot=    1.000000    0.000358    0.000099   -0.000059 Ang=   0.04 deg.
 ExpMin= 4.38D-02 ExpMax= 5.48D+03 ExpMxC= 8.25D+02 IAcc=3 IRadAn=         5 AccDes= 0.00D+00
 Harris functional with IExCor=  402 and IRadAn=       5 diagonalized for initial guess.
 HarFok:  IExCor=  402 AccDes= 0.00D+00 IRadAn=         5 IDoV= 1 UseB2=F ITyADJ=14
 ICtDFT=  3500011 ScaDFX=  1.000000  1.000000  1.000000  1.000000
 FoFCou: FMM=F IPFlag=           0 FMFlag=      100000 FMFlg1=           0
         NFxFlg=           0 DoJE=T BraDBF=F KetDBF=T FulRan=T
         wScrn=  0.000000 ICntrl=       500 IOpCl=  0 I1Cent=   200000004 NGrid=           0
         NMat0=    1 NMatS0=      1 NMatT0=    0 NMatD0=    1 NMtDS0=    0 NMtDT0=    0
 Symmetry not used in FoFCou.
 Keep R1 ints in memory in canonical form, NReq=47237243.
 Requested convergence on RMS density matrix=1.00D-08 within 128 cycles.
 Requested convergence on MAX density matrix=1.00D-06.
 Requested convergence on             energy=1.00D-06.
 No special actions if energy rises.
 SCF Done:  E(RB3LYP) =  -343.410567744     A.U. after   12 cycles
            NFock= 12  Conv=0.84D-08     -V/T= 2.0093
 DoSCS=F DFT=T ScalE2(SS,OS)=  1.000000  1.000000
 Range of M.O.s used for correlation:     1   126
 NBasis=   126 NAE=    24 NBE=    24 NFC=     0 NFV=     0
 NROrb=    126 NOA=    24 NOB=    24 NVA=   102 NVB=   102

 **** Warning!!: The largest alpha MO coefficient is  0.28736046D+02

 Symmetrizing basis deriv contribution to polar:
 IMax=3 JMax=2 DiffMx= 0.00D+00
 G2DrvN: will do    13 centers at a time, making    1 passes.
 Calling FoFCou, ICntrl=  3107 FMM=F I1Cent=   0 AccDes= 0.00D+00.
 End of G2Drv F.D. properties file   721 does not exist.
 End of G2Drv F.D. properties file   722 does not exist.
 End of G2Drv F.D. properties file   788 does not exist.
          IDoAtm=111111111111
          Differentiating once with respect to nuclear coordinates.
 Keep R1 ints in memory in canonical form, NReq=47193265.
          There are    39 degrees of freedom in the 1st order CPHF.  IDoFFX=6 NUNeed=     0.
     33 vectors produced by pass  0 Test12= 6.28D-15 2.56D-09 XBig12= 2.07D-01 1.87D-01.
 AX will form    33 AO Fock derivatives at one time.
     33 vectors produced by pass  1 Test12= 6.28D-15 2.56D-09 XBig12= 1.23D-02 2.28D-02.
     33 vectors produced by pass  2 Test12= 6.28D-15 2.56D-09 XBig12= 1.19D-04 2.56D-03.
     33 vectors produced by pass  3 Test12= 6.28D-15 2.56D-09 XBig12= 8.40D-07 2.00D-04.
     33 vectors produced by pass  4 Test12= 6.28D-15 2.56D-09 XBig12= 1.80D-09 6.10D-06.
     29 vectors produced by pass  5 Test12= 6.28D-15 2.56D-09 XBig12= 1.91D-12 1.67D-07.
      6 vectors produced by pass  6 Test12= 6.28D-15 2.56D-09 XBig12= 1.98D-15 5.18D-09.
 InvSVY:  IOpt=1 It=  1 EMax= 1.33D-15
 Solved reduced A of dimension   200 with    33 vectors.
 End of Minotr F.D. properties file   721 does not exist.
 End of Minotr F.D. properties file   722 does not exist.
 End of Minotr F.D. properties file   788 does not exist.
 Calling FoFJK, ICntrl=    100127 FMM=F ISym2X=0 I1Cent= 0 IOpClX= 0 NMat=1 NMatS=1 NMatT=0.
 -------------------------------------------------------------------
 Center     Atomic                   Forces (Hartrees/Bohr)
 Number     Number              X              Y              Z
 -------------------------------------------------------------------
      1        6           0.005202935   -0.001926893   -0.000944653
      2        6           0.005449213   -0.002774878    0.006780085
      3        6          -0.001638715   -0.001181267   -0.000616942
      4        8           0.005550339   -0.003910389   -0.002496592
      5        8          -0.004382886    0.003861348   -0.001507805
      6        8          -0.000041826    0.000808113    0.000082919
      7        1          -0.000136757    0.000069690   -0.000121618
      8        1          -0.000097729    0.000053877   -0.000222782
      9        1          -0.000237926    0.000063182   -0.000358475
     10        1          -0.000021217   -0.000109758    0.000081180
     11        1          -0.000362993    0.000108755   -0.000568112
     12        1          -0.009282438    0.004938220   -0.000107206
 -------------------------------------------------------------------
 Cartesian Forces:  Max     0.009282438 RMS     0.002982458
 IRC-IRC-IRC-IRC-IRC-IRC-IRC-IRC-IRC-IRC-IRC-IRC-IRC-IRC-IRC-IRC-IRC-IRC
 Pt  1 Step number   1 out of a maximum of 100
 Modified Bulirsch-Stoer Extrapolation Cycles:
    EPS =    0.000010000000000
      PEZero:  N= 2 I= 1 D=  4.21D-04 Err=  1.04D-03
      PEZero:  N= 3 I= 2 D=  4.21D-04 Err=  6.92D-04
      PEZero:  N= 3 I= 1 D=  8.43D-04 Err=  1.65D-07
 Maximum DWI energy   std dev =  0.000014368 at pt    43
 Maximum DWI gradient std dev =  0.031184876 at pt    34
 CORRECTOR INTEGRATION CONVERGENCE:
   Recorrection delta-x convergence threshold:    0.010000
   Delta-x Convergence Met
 Point Number:   1          Path Number:   1
   CHANGE IN THE REACTION COORDINATE =    0.16174
   NET REACTION COORDINATE UP TO THIS POINT =    0.16174
  # OF POINTS ALONG THE PATH =   1
  # OF STEPS =   1

 Calculating another point on the path.
 IRC-IRC-IRC-IRC-IRC-IRC-IRC-IRC-IRC-IRC-IRC-IRC-IRC-IRC-IRC-IRC-IRC-IRC
                          Input orientation:                          
 ---------------------------------------------------------------------
 Center     Atomic      Atomic             Coordinates (Angstroms)
 Number     Number       Type             X           Y           Z
 ---------------------------------------------------------------------
      1          6           0        0.275442    0.635869   -0.803394
      2          6           0       -0.769904    0.949762    0.176764
      3          6           0       -1.915259    0.050143    0.331693
      4          8           0        1.264296    0.230694    0.329702
      5          8           0        2.533631   -0.663602    0.093242
      6          8           0       -2.035869   -1.039317   -0.213543
      7          1           0        3.210350   -0.005702    0.342858
      8          1           0        0.097868   -0.252580   -1.408346
      9          1           0        0.742126    1.455199   -1.346379
     10          1           0       -2.699838    0.414781    1.027044
     11          1           0       -0.879117    1.974695    0.524824
     12          1           0        0.255603    0.302013    1.048414
 ---------------------------------------------------------------------
                    Distance matrix (angstroms):
                    1          2          3          4          5
     1  C    0.000000
     2  C    1.466965   0.000000
     3  C    2.535877   1.464635   0.000000
     4  O    1.557532   2.162965   3.184678   0.000000
     5  O    2.755358   3.677399   4.512085   1.570633   0.000000
     6  O    2.914847   2.389863   1.224235   3.577588   4.595172
     7  H    3.215461   4.096696   5.125925   1.960403   0.976262
     8  H    1.089423   2.170536   2.678070   2.148236   2.890786
     9  H    1.088085   2.204919   3.442646   2.140402   3.125910
    10  H    3.500240   2.175736   1.109972   4.029210   5.424398
    11  H    2.211250   1.087916   2.194264   2.770168   4.335172
    12  H    1.881766   1.493659   2.299950   1.240602   2.652202
                    6          7          8          9         10
     6  O    0.000000
     7  H    5.375942   0.000000
     8  H    2.568919   3.579833   0.000000
     9  H    3.901690   3.328645   1.826313   0.000000
    10  H    2.023441   5.964498   3.768774   4.308448   0.000000
    11  H    3.311727   4.547397   3.106832   2.529764   2.449609
    12  H    2.939821   3.053363   2.523514   2.702143   2.957669
                   11         12
    11  H    0.000000
    12  H    2.087966   0.000000
 Symmetry turned off by external request.
 Stoichiometry    C3H6O3
 Framework group  C1[X(C3H6O3)]
 Deg. of freedom    30
 Full point group                 C1      NOp   1
 Rotational constants (GHZ):           7.6957748           1.7783633           1.6145266
 Standard basis: 6-31+G(d) (6D, 7F)
   126 basis functions,   216 primitive gaussians,   126 cartesian basis functions
    24 alpha electrons       24 beta electrons
       nuclear repulsion energy       232.8351722224 Hartrees.
 NAtoms=   12 NActive=   12 NUniq=   12 SFac= 1.00D+00 NAtFMM=   60 NAOKFM=F Big=F
 Integral buffers will be    131072 words long.
 Raffenetti 2 integral format.
 Two-electron integral symmetry is turned off.
 One-electron integrals computed using PRISM.
 NBasis=   126 RedAO= T EigKep=  1.10D-04  NBF=   126
 NBsUse=   126 1.00D-06 EigRej= -1.00D+00 NBFU=   126
 Initial guess from the checkpoint file:  "/scratch/bell/zhao922/YARP/paper-example/KHP-network/pp_0/IRC-folder/Gau-35814.chk"
 B after Tr=    -0.001496    0.000756   -0.000183
         Rot=    1.000000    0.000313    0.000108   -0.000058 Ang=   0.04 deg.
 ExpMin= 4.38D-02 ExpMax= 5.48D+03 ExpMxC= 8.25D+02 IAcc=3 IRadAn=         5 AccDes= 0.00D+00
 Harris functional with IExCor=  402 and IRadAn=       5 diagonalized for initial guess.
 HarFok:  IExCor=  402 AccDes= 0.00D+00 IRadAn=         5 IDoV= 1 UseB2=F ITyADJ=14
 ICtDFT=  3500011 ScaDFX=  1.000000  1.000000  1.000000  1.000000
 FoFCou: FMM=F IPFlag=           0 FMFlag=      100000 FMFlg1=           0
         NFxFlg=           0 DoJE=T BraDBF=F KetDBF=T FulRan=T
         wScrn=  0.000000 ICntrl=       500 IOpCl=  0 I1Cent=   200000004 NGrid=           0
         NMat0=    1 NMatS0=      1 NMatT0=    0 NMatD0=    1 NMtDS0=    0 NMtDT0=    0
 Symmetry not used in FoFCou.
 Keep R1 ints in memory in canonical form, NReq=47237243.
 Requested convergence on RMS density matrix=1.00D-08 within 128 cycles.
 Requested convergence on MAX density matrix=1.00D-06.
 Requested convergence on             energy=1.00D-06.
 No special actions if energy rises.
 SCF Done:  E(RB3LYP) =  -343.413481757     A.U. after   12 cycles
            NFock= 12  Conv=0.96D-08     -V/T= 2.0093
 DoSCS=F DFT=T ScalE2(SS,OS)=  1.000000  1.000000
 Range of M.O.s used for correlation:     1   126
 NBasis=   126 NAE=    24 NBE=    24 NFC=     0 NFV=     0
 NROrb=    126 NOA=    24 NOB=    24 NVA=   102 NVB=   102

 **** Warning!!: The largest alpha MO coefficient is  0.29248512D+02

 Symmetrizing basis deriv contribution to polar:
 IMax=3 JMax=2 DiffMx= 0.00D+00
 G2DrvN: will do    13 centers at a time, making    1 passes.
 Calling FoFCou, ICntrl=  3107 FMM=F I1Cent=   0 AccDes= 0.00D+00.
 End of G2Drv F.D. properties file   721 does not exist.
 End of G2Drv F.D. properties file   722 does not exist.
 End of G2Drv F.D. properties file   788 does not exist.
          IDoAtm=111111111111
          Differentiating once with respect to nuclear coordinates.
 Keep R1 ints in memory in canonical form, NReq=47193265.
          There are    39 degrees of freedom in the 1st order CPHF.  IDoFFX=6 NUNeed=     0.
     33 vectors produced by pass  0 Test12= 6.28D-15 2.56D-09 XBig12= 1.83D-01 1.85D-01.
 AX will form    33 AO Fock derivatives at one time.
     33 vectors produced by pass  1 Test12= 6.28D-15 2.56D-09 XBig12= 1.22D-02 2.49D-02.
     33 vectors produced by pass  2 Test12= 6.28D-15 2.56D-09 XBig12= 1.54D-04 3.28D-03.
     33 vectors produced by pass  3 Test12= 6.28D-15 2.56D-09 XBig12= 1.15D-06 2.44D-04.
     33 vectors produced by pass  4 Test12= 6.28D-15 2.56D-09 XBig12= 2.46D-09 7.50D-06.
     28 vectors produced by pass  5 Test12= 6.28D-15 2.56D-09 XBig12= 2.71D-12 1.94D-07.
      4 vectors produced by pass  6 Test12= 6.28D-15 2.56D-09 XBig12= 2.97D-15 6.75D-09.
 InvSVY:  IOpt=1 It=  1 EMax= 2.55D-15
 Solved reduced A of dimension   197 with    33 vectors.
 End of Minotr F.D. properties file   721 does not exist.
 End of Minotr F.D. properties file   722 does not exist.
 End of Minotr F.D. properties file   788 does not exist.
 Calling FoFJK, ICntrl=    100127 FMM=F ISym2X=0 I1Cent= 0 IOpClX= 0 NMat=1 NMatS=1 NMatT=0.
 -------------------------------------------------------------------
 Center     Atomic                   Forces (Hartrees/Bohr)
 Number     Number              X              Y              Z
 -------------------------------------------------------------------
      1        6           0.011219499   -0.004269187   -0.001575539
      2        6           0.011538474   -0.005974509    0.014983638
      3        6          -0.003933977   -0.002595311   -0.001566185
      4        8           0.013245095   -0.008412663   -0.005437285
      5        8          -0.009342625    0.008100745   -0.003239796
      6        8          -0.000025858    0.001785593    0.000296177
      7        1          -0.000264786    0.000145369   -0.000294556
      8        1          -0.000275670    0.000134498   -0.000478847
      9        1          -0.000568923    0.000148502   -0.000749465
     10        1          -0.000041885   -0.000257512    0.000208732
     11        1          -0.000857801    0.000281168   -0.001260496
     12        1          -0.020691543    0.010913306   -0.000886378
 -------------------------------------------------------------------
 Cartesian Forces:  Max     0.020691543 RMS     0.006580675
 IRC-IRC-IRC-IRC-IRC-IRC-IRC-IRC-IRC-IRC-IRC-IRC-IRC-IRC-IRC-IRC-IRC-IRC
 Pt  2 Step number   1 out of a maximum of 100
 Modified Bulirsch-Stoer Extrapolation Cycles:
    EPS =    0.000010000000000
      PEZero:  N= 2 I= 1 D=  8.42D-04 Err=  1.89D-05
      PEZero:  N= 3 I= 2 D=  8.42D-04 Err=  1.26D-05
      PEZero:  N= 3 I= 1 D=  1.68D-03 Err=  4.25D-08
 Maximum DWI energy   std dev =  0.000007778 at pt    70
 Maximum DWI gradient std dev =  0.006948384 at pt    61
 CORRECTOR INTEGRATION CONVERGENCE:
   Recorrection delta-x convergence threshold:    0.010000
   Delta-x Convergence Met
 Point Number:   2          Path Number:   1
   CHANGE IN THE REACTION COORDINATE =    0.16174
   NET REACTION COORDINATE UP TO THIS POINT =    0.32348
  # OF POINTS ALONG THE PATH =   2
  # OF STEPS =   1

 Calculating another point on the path.
 IRC-IRC-IRC-IRC-IRC-IRC-IRC-IRC-IRC-IRC-IRC-IRC-IRC-IRC-IRC-IRC-IRC-IRC
                          Input orientation:                          
 ---------------------------------------------------------------------
 Center     Atomic      Atomic             Coordinates (Angstroms)
 Number     Number       Type             X           Y           Z
 ---------------------------------------------------------------------
      1          6           0        0.278592    0.634649   -0.803766
      2          6           0       -0.766688    0.948090    0.181015
      3          6           0       -1.916411    0.049413    0.331225
      4          8           0        1.267239    0.228945    0.328492
      5          8           0        2.531676   -0.661922    0.092562
      6          8           0       -2.035869   -1.038939   -0.213472
      7          1           0        3.209485   -0.005213    0.341821
      8          1           0        0.096890   -0.252105   -1.409931
      9          1           0        0.740186    1.455686   -1.348809
     10          1           0       -2.699982    0.413887    1.027773
     11          1           0       -0.882131    1.975702    0.520492
     12          1           0        0.184783    0.338673    1.045321
 ---------------------------------------------------------------------
                    Distance matrix (angstroms):
                    1          2          3          4          5
     1  C    0.000000
     2  C    1.469914   0.000000
     3  C    2.539437   1.466986   0.000000
     4  O    1.556929   2.162355   3.188709   0.000000
     5  O    2.749708   3.671399   4.510924   1.564644   0.000000
     6  O    2.916517   2.390550   1.222896   3.579354   4.593286
     7  H    3.211219   4.092016   5.126198   1.956356   0.976126
     8  H    1.089396   2.171945   2.678790   2.150172   2.890263
     9  H    1.088230   2.206509   3.443490   2.143832   3.125900
    10  H    3.503594   2.177154   1.109957   4.032622   5.422383
    11  H    2.213450   1.088374   2.194572   2.776296   4.335236
    12  H    1.874973   1.422572   2.237994   1.302918   2.723389
                    6          7          8          9         10
     6  O    0.000000
     7  H    5.375005   0.000000
     8  H    2.568907   3.580200   0.000000
     9  H    3.901106   3.330149   1.825956   0.000000
    10  H    2.022978   5.963890   3.769408   4.309089   0.000000
    11  H    3.310269   4.549426   3.106146   2.529153   2.449731
    12  H    2.900633   3.124419   2.526857   2.699639   2.885799
                   11         12
    11  H    0.000000
    12  H    2.023269   0.000000
 Symmetry turned off by external request.
 Stoichiometry    C3H6O3
 Framework group  C1[X(C3H6O3)]
 Deg. of freedom    30
 Full point group                 C1      NOp   1
 Rotational constants (GHZ):           7.7054125           1.7786715           1.6153119
 Standard basis: 6-31+G(d) (6D, 7F)
   126 basis functions,   216 primitive gaussians,   126 cartesian basis functions
    24 alpha electrons       24 beta electrons
       nuclear repulsion energy       232.8705525264 Hartrees.
 NAtoms=   12 NActive=   12 NUniq=   12 SFac= 1.00D+00 NAtFMM=   60 NAOKFM=F Big=F
 Integral buffers will be    131072 words long.
 Raffenetti 2 integral format.
 Two-electron integral symmetry is turned off.
 One-electron integrals computed using PRISM.
 NBasis=   126 RedAO= T EigKep=  1.11D-04  NBF=   126
 NBsUse=   126 1.00D-06 EigRej= -1.00D+00 NBFU=   126
 Initial guess from the checkpoint file:  "/scratch/bell/zhao922/YARP/paper-example/KHP-network/pp_0/IRC-folder/Gau-35814.chk"
 B after Tr=    -0.001509    0.000743   -0.000186
         Rot=    1.000000    0.000310    0.000109   -0.000059 Ang=   0.04 deg.
 ExpMin= 4.38D-02 ExpMax= 5.48D+03 ExpMxC= 8.25D+02 IAcc=3 IRadAn=         5 AccDes= 0.00D+00
 Harris functional with IExCor=  402 and IRadAn=       5 diagonalized for initial guess.
 HarFok:  IExCor=  402 AccDes= 0.00D+00 IRadAn=         5 IDoV= 1 UseB2=F ITyADJ=14
 ICtDFT=  3500011 ScaDFX=  1.000000  1.000000  1.000000  1.000000
 FoFCou: FMM=F IPFlag=           0 FMFlag=      100000 FMFlg1=           0
         NFxFlg=           0 DoJE=T BraDBF=F KetDBF=T FulRan=T
         wScrn=  0.000000 ICntrl=       500 IOpCl=  0 I1Cent=   200000004 NGrid=           0
         NMat0=    1 NMatS0=      1 NMatT0=    0 NMatD0=    1 NMtDS0=    0 NMtDT0=    0
 Symmetry not used in FoFCou.
 Keep R1 ints in memory in canonical form, NReq=47237243.
 Requested convergence on RMS density matrix=1.00D-08 within 128 cycles.
 Requested convergence on MAX density matrix=1.00D-06.
 Requested convergence on             energy=1.00D-06.
 No special actions if energy rises.
 SCF Done:  E(RB3LYP) =  -343.418617132     A.U. after   13 cycles
            NFock= 13  Conv=0.18D-08     -V/T= 2.0094
 DoSCS=F DFT=T ScalE2(SS,OS)=  1.000000  1.000000
 Range of M.O.s used for correlation:     1   126
 NBasis=   126 NAE=    24 NBE=    24 NFC=     0 NFV=     0
 NROrb=    126 NOA=    24 NOB=    24 NVA=   102 NVB=   102

 **** Warning!!: The largest alpha MO coefficient is  0.29909728D+02

 Symmetrizing basis deriv contribution to polar:
 IMax=3 JMax=2 DiffMx= 0.00D+00
 G2DrvN: will do    13 centers at a time, making    1 passes.
 Calling FoFCou, ICntrl=  3107 FMM=F I1Cent=   0 AccDes= 0.00D+00.
 End of G2Drv F.D. properties file   721 does not exist.
 End of G2Drv F.D. properties file   722 does not exist.
 End of G2Drv F.D. properties file   788 does not exist.
          IDoAtm=111111111111
          Differentiating once with respect to nuclear coordinates.
 Keep R1 ints in memory in canonical form, NReq=47193265.
          There are    39 degrees of freedom in the 1st order CPHF.  IDoFFX=6 NUNeed=     0.
     33 vectors produced by pass  0 Test12= 6.28D-15 2.56D-09 XBig12= 1.60D-01 1.67D-01.
 AX will form    33 AO Fock derivatives at one time.
     33 vectors produced by pass  1 Test12= 6.28D-15 2.56D-09 XBig12= 1.26D-02 2.66D-02.
     33 vectors produced by pass  2 Test12= 6.28D-15 2.56D-09 XBig12= 1.99D-04 3.89D-03.
     33 vectors produced by pass  3 Test12= 6.28D-15 2.56D-09 XBig12= 1.54D-06 2.78D-04.
     33 vectors produced by pass  4 Test12= 6.28D-15 2.56D-09 XBig12= 3.39D-09 8.21D-06.
     29 vectors produced by pass  5 Test12= 6.28D-15 2.56D-09 XBig12= 3.89D-12 2.78D-07.
      4 vectors produced by pass  6 Test12= 6.28D-15 2.56D-09 XBig12= 4.25D-15 8.21D-09.
 InvSVY:  IOpt=1 It=  1 EMax= 2.22D-15
 Solved reduced A of dimension   198 with    33 vectors.
 End of Minotr F.D. properties file   721 does not exist.
 End of Minotr F.D. properties file   722 does not exist.
 End of Minotr F.D. properties file   788 does not exist.
 Calling FoFJK, ICntrl=    100127 FMM=F ISym2X=0 I1Cent= 0 IOpClX= 0 NMat=1 NMatS=1 NMatT=0.
 -------------------------------------------------------------------
 Center     Atomic                   Forces (Hartrees/Bohr)
 Number     Number              X              Y              Z
 -------------------------------------------------------------------
      1        6           0.017108189   -0.006738216   -0.001651679
      2        6           0.017008957   -0.008810751    0.023045634
      3        6          -0.006439797   -0.003889597   -0.002674637
      4        8           0.021327897   -0.012391425   -0.008656251
      5        8          -0.013977536    0.011905055   -0.004954452
      6        8           0.000011425    0.002693522    0.000531742
      7        1          -0.000403769    0.000228310   -0.000489867
      8        1          -0.000452741    0.000220556   -0.000717178
      9        1          -0.000880804    0.000223296   -0.001077454
     10        1          -0.000078862   -0.000420194    0.000346570
     11        1          -0.001462441    0.000486814   -0.002077747
     12        1          -0.031760518    0.016492628   -0.001624681
 -------------------------------------------------------------------
 Cartesian Forces:  Max     0.031760518 RMS     0.010067462
 IRC-IRC-IRC-IRC-IRC-IRC-IRC-IRC-IRC-IRC-IRC-IRC-IRC-IRC-IRC-IRC-IRC-IRC
 Pt  3 Step number   1 out of a maximum of 100
 Modified Bulirsch-Stoer Extrapolation Cycles:
    EPS =    0.000010000000000
      PEZero:  N= 2 I= 1 D=  8.43D-04 Err=  8.98D-06
 Maximum DWI energy   std dev =  0.000010775 at pt    18
 Maximum DWI gradient std dev =  0.001898492 at pt    14
 CORRECTOR INTEGRATION CONVERGENCE:
   Recorrection delta-x convergence threshold:    0.010000
   Delta-x Convergence Met
 Point Number:   3          Path Number:   1
   CHANGE IN THE REACTION COORDINATE =    0.16176
   NET REACTION COORDINATE UP TO THIS POINT =    0.48524
  # OF POINTS ALONG THE PATH =   3
  # OF STEPS =   1

 Calculating another point on the path.
 IRC-IRC-IRC-IRC-IRC-IRC-IRC-IRC-IRC-IRC-IRC-IRC-IRC-IRC-IRC-IRC-IRC-IRC
                          Input orientation:                          
 ---------------------------------------------------------------------
 Center     Atomic      Atomic             Coordinates (Angstroms)
 Number     Number       Type             X           Y           Z
 ---------------------------------------------------------------------
      1          6           0        0.281813    0.633359   -0.804007
      2          6           0       -0.763560    0.946472    0.185348
      3          6           0       -1.917659    0.048694    0.330698
      4          8           0        1.270291    0.227234    0.327255
      5          8           0        2.529723   -0.660275    0.091859
      6          8           0       -2.035866   -1.038565   -0.213395
      7          1           0        3.208572   -0.004687    0.340683
      8          1           0        0.095867   -0.251603   -1.411515
      9          1           0        0.738218    1.456170   -1.351143
     10          1           0       -2.700185    0.412917    1.028567
     11          1           0       -0.885589    1.976875    0.515641
     12          1           0        0.114124    0.375204    1.041572
 ---------------------------------------------------------------------
                    Distance matrix (angstroms):
                    1          2          3          4          5
     1  C    0.000000
     2  C    1.472978   0.000000
     3  C    2.543042   1.469379   0.000000
     4  O    1.556207   2.161941   3.192947   0.000000
     5  O    2.743933   3.665526   4.509865   1.558606   0.000000
     6  O    2.918182   2.391261   1.221533   3.581231   4.591392
     7  H    3.206764   4.087378   5.126518   1.952153   0.975984
     8  H    1.089403   2.173469   2.679509   2.152179   2.889775
     9  H    1.088431   2.208152   3.444309   2.147185   3.125873
    10  H    3.507026   2.178581   1.109967   4.036210   5.420433
    11  H    2.215701   1.088905   2.194824   2.782903   4.335724
    12  H    1.871076   1.352699   2.177175   1.367065   2.794510
                    6          7          8          9         10
     6  O    0.000000
     7  H    5.374014   0.000000
     8  H    2.568869   3.580516   0.000000
     9  H    3.900476   3.331520   1.825582   0.000000
    10  H    2.022520   5.963303   3.770078   4.309758   0.000000
    11  H    3.308701   4.551851   3.105365   2.528392   2.449860
    12  H    2.862890   3.195492   2.531966   2.698715   2.814591
                   11         12
    11  H    0.000000
    12  H    1.959943   0.000000
 Symmetry turned off by external request.
 Stoichiometry    C3H6O3
 Framework group  C1[X(C3H6O3)]
 Deg. of freedom    30
 Full point group                 C1      NOp   1
 Rotational constants (GHZ):           7.7150769           1.7788690           1.6159535
 Standard basis: 6-31+G(d) (6D, 7F)
   126 basis functions,   216 primitive gaussians,   126 cartesian basis functions
    24 alpha electrons       24 beta electrons
       nuclear repulsion energy       232.9262761228 Hartrees.
 NAtoms=   12 NActive=   12 NUniq=   12 SFac= 1.00D+00 NAtFMM=   60 NAOKFM=F Big=F
 Integral buffers will be    131072 words long.
 Raffenetti 2 integral format.
 Two-electron integral symmetry is turned off.
 One-electron integrals computed using PRISM.
 NBasis=   126 RedAO= T EigKep=  1.11D-04  NBF=   126
 NBsUse=   126 1.00D-06 EigRej= -1.00D+00 NBFU=   126
 Initial guess from the checkpoint file:  "/scratch/bell/zhao922/YARP/paper-example/KHP-network/pp_0/IRC-folder/Gau-35814.chk"
 B after Tr=    -0.001518    0.000743   -0.000206
         Rot=    1.000000    0.000316    0.000109   -0.000060 Ang=   0.04 deg.
 ExpMin= 4.38D-02 ExpMax= 5.48D+03 ExpMxC= 8.25D+02 IAcc=3 IRadAn=         5 AccDes= 0.00D+00
 Harris functional with IExCor=  402 and IRadAn=       5 diagonalized for initial guess.
 HarFok:  IExCor=  402 AccDes= 0.00D+00 IRadAn=         5 IDoV= 1 UseB2=F ITyADJ=14
 ICtDFT=  3500011 ScaDFX=  1.000000  1.000000  1.000000  1.000000
 FoFCou: FMM=F IPFlag=           0 FMFlag=      100000 FMFlg1=           0
         NFxFlg=           0 DoJE=T BraDBF=F KetDBF=T FulRan=T
         wScrn=  0.000000 ICntrl=       500 IOpCl=  0 I1Cent=   200000004 NGrid=           0
         NMat0=    1 NMatS0=      1 NMatT0=    0 NMatD0=    1 NMtDS0=    0 NMtDT0=    0
 Symmetry not used in FoFCou.
 Keep R1 ints in memory in canonical form, NReq=47237243.
 Requested convergence on RMS density matrix=1.00D-08 within 128 cycles.
 Requested convergence on MAX density matrix=1.00D-06.
 Requested convergence on             energy=1.00D-06.
 No special actions if energy rises.
 SCF Done:  E(RB3LYP) =  -343.425641274     A.U. after   12 cycles
            NFock= 12  Conv=0.88D-08     -V/T= 2.0094
 DoSCS=F DFT=T ScalE2(SS,OS)=  1.000000  1.000000
 Range of M.O.s used for correlation:     1   126
 NBasis=   126 NAE=    24 NBE=    24 NFC=     0 NFV=     0
 NROrb=    126 NOA=    24 NOB=    24 NVA=   102 NVB=   102

 **** Warning!!: The largest alpha MO coefficient is  0.30705812D+02

 Symmetrizing basis deriv contribution to polar:
 IMax=3 JMax=2 DiffMx= 0.00D+00
 G2DrvN: will do    13 centers at a time, making    1 passes.
 Calling FoFCou, ICntrl=  3107 FMM=F I1Cent=   0 AccDes= 0.00D+00.
 End of G2Drv F.D. properties file   721 does not exist.
 End of G2Drv F.D. properties file   722 does not exist.
 End of G2Drv F.D. properties file   788 does not exist.
          IDoAtm=111111111111
          Differentiating once with respect to nuclear coordinates.
 Keep R1 ints in memory in canonical form, NReq=47193265.
          There are    39 degrees of freedom in the 1st order CPHF.  IDoFFX=6 NUNeed=     0.
     33 vectors produced by pass  0 Test12= 6.28D-15 2.56D-09 XBig12= 1.42D-01 1.42D-01.
 AX will form    33 AO Fock derivatives at one time.
     33 vectors produced by pass  1 Test12= 6.28D-15 2.56D-09 XBig12= 1.31D-02 2.61D-02.
     33 vectors produced by pass  2 Test12= 6.28D-15 2.56D-09 XBig12= 2.45D-04 4.25D-03.
     33 vectors produced by pass  3 Test12= 6.28D-15 2.56D-09 XBig12= 1.95D-06 2.87D-04.
     33 vectors produced by pass  4 Test12= 6.28D-15 2.56D-09 XBig12= 4.38D-09 7.94D-06.
     27 vectors produced by pass  5 Test12= 6.28D-15 2.56D-09 XBig12= 5.21D-12 3.03D-07.
      5 vectors produced by pass  6 Test12= 6.28D-15 2.56D-09 XBig12= 5.38D-15 9.84D-09.
 InvSVY:  IOpt=1 It=  1 EMax= 3.22D-15
 Solved reduced A of dimension   197 with    33 vectors.
 End of Minotr F.D. properties file   721 does not exist.
 End of Minotr F.D. properties file   722 does not exist.
 End of Minotr F.D. properties file   788 does not exist.
 Calling FoFJK, ICntrl=    100127 FMM=F ISym2X=0 I1Cent= 0 IOpClX= 0 NMat=1 NMatS=1 NMatT=0.
 -------------------------------------------------------------------
 Center     Atomic                   Forces (Hartrees/Bohr)
 Number     Number              X              Y              Z
 -------------------------------------------------------------------
      1        6           0.022420387   -0.009137680   -0.001114789
      2        6           0.020611514   -0.010585788    0.029575711
      3        6          -0.008917187   -0.004843176   -0.003859119
      4        8           0.027891308   -0.015368830   -0.011223394
      5        8          -0.017864595    0.014921327   -0.006584822
      6        8           0.000039204    0.003365598    0.000711256
      7        1          -0.000543650    0.000318163   -0.000682559
      8        1          -0.000596071    0.000294617   -0.000912877
      9        1          -0.001139098    0.000278036   -0.001314807
     10        1          -0.000138709   -0.000582376    0.000480717
     11        1          -0.002148074    0.000727242   -0.002998367
     12        1          -0.039615029    0.020612868   -0.002076949
 -------------------------------------------------------------------
 Cartesian Forces:  Max     0.039615029 RMS     0.012772028
 IRC-IRC-IRC-IRC-IRC-IRC-IRC-IRC-IRC-IRC-IRC-IRC-IRC-IRC-IRC-IRC-IRC-IRC
 Pt  4 Step number   1 out of a maximum of 100
 Modified Bulirsch-Stoer Extrapolation Cycles:
    EPS =    0.000010000000000
      PEZero:  N= 2 I= 1 D=  8.43D-04 Err=  9.89D-06
 Maximum DWI energy   std dev =  0.000020500 at pt    14
 Maximum DWI gradient std dev =  0.002336593 at pt    18
 CORRECTOR INTEGRATION CONVERGENCE:
   Recorrection delta-x convergence threshold:    0.010000
   Delta-x Convergence Met
 Point Number:   4          Path Number:   1
   CHANGE IN THE REACTION COORDINATE =    0.16176
   NET REACTION COORDINATE UP TO THIS POINT =    0.64700
  # OF POINTS ALONG THE PATH =   4
  # OF STEPS =   1

 Calculating another point on the path.
 IRC-IRC-IRC-IRC-IRC-IRC-IRC-IRC-IRC-IRC-IRC-IRC-IRC-IRC-IRC-IRC-IRC-IRC
                          Input orientation:                          
 ---------------------------------------------------------------------
 Center     Atomic      Atomic             Coordinates (Angstroms)
 Number     Number       Type             X           Y           Z
 ---------------------------------------------------------------------
      1          6           0        0.285279    0.631921   -0.804092
      2          6           0       -0.760538    0.944931    0.189830
      3          6           0       -1.919070    0.047973    0.330077
      4          8           0        1.273482    0.225506    0.325977
      5          8           0        2.527676   -0.658582    0.091085
      6          8           0       -2.035862   -1.038189   -0.213315
      7          1           0        3.207556   -0.004081    0.339391
      8          1           0        0.094792   -0.251064   -1.413157
      9          1           0        0.736152    1.456655   -1.353461
     10          1           0       -2.700482    0.411817    1.029463
     11          1           0       -0.889770    1.978322    0.509844
     12          1           0        0.044088    0.411871    1.038042
 ---------------------------------------------------------------------
                    Distance matrix (angstroms):
                    1          2          3          4          5
     1  C    0.000000
     2  C    1.476344   0.000000
     3  C    2.546859   1.471869   0.000000
     4  O    1.555240   2.161792   3.197487   0.000000
     5  O    2.737714   3.659693   4.508868   1.552349   0.000000
     6  O    2.919928   2.392016   1.220108   3.583227   4.589405
     7  H    3.201835   4.082739   5.126899   1.947699   0.975840
     8  H    1.089454   2.175216   2.680286   2.154302   2.889245
     9  H    1.088706   2.209908   3.445126   2.150573   3.125780
    10  H    3.510718   2.180040   1.110012   4.040048   5.418481
    11  H    2.218099   1.089499   2.195000   2.790310   4.336768
    12  H    1.870842   1.284927   2.118402   1.432891   2.865451
                    6          7          8          9         10
     6  O    0.000000
     7  H    5.372922   0.000000
     8  H    2.568827   3.580743   0.000000
     9  H    3.899775   3.332767   1.825161   0.000000
    10  H    2.022062   5.962724   3.770857   4.310507   0.000000
    11  H    3.306936   4.554894   3.104426   2.527384   2.450025
    12  H    2.827500   3.266291   2.539770   2.699966   2.744583
                   11         12
    11  H    0.000000
    12  H    1.898645   0.000000
 Symmetry turned off by external request.
 Stoichiometry    C3H6O3
 Framework group  C1[X(C3H6O3)]
 Deg. of freedom    30
 Full point group                 C1      NOp   1
 Rotational constants (GHZ):           7.7248981           1.7789568           1.6164694
 Standard basis: 6-31+G(d) (6D, 7F)
   126 basis functions,   216 primitive gaussians,   126 cartesian basis functions
    24 alpha electrons       24 beta electrons
       nuclear repulsion energy       233.0009585737 Hartrees.
 NAtoms=   12 NActive=   12 NUniq=   12 SFac= 1.00D+00 NAtFMM=   60 NAOKFM=F Big=F
 Integral buffers will be    131072 words long.
 Raffenetti 2 integral format.
 Two-electron integral symmetry is turned off.
 One-electron integrals computed using PRISM.
 NBasis=   126 RedAO= T EigKep=  1.12D-04  NBF=   126
 NBsUse=   126 1.00D-06 EigRej= -1.00D+00 NBFU=   126
 Initial guess from the checkpoint file:  "/scratch/bell/zhao922/YARP/paper-example/KHP-network/pp_0/IRC-folder/Gau-35814.chk"
 B after Tr=    -0.001526    0.000751   -0.000219
         Rot=    1.000000    0.000328    0.000109   -0.000063 Ang=   0.04 deg.
 ExpMin= 4.38D-02 ExpMax= 5.48D+03 ExpMxC= 8.25D+02 IAcc=3 IRadAn=         5 AccDes= 0.00D+00
 Harris functional with IExCor=  402 and IRadAn=       5 diagonalized for initial guess.
 HarFok:  IExCor=  402 AccDes= 0.00D+00 IRadAn=         5 IDoV= 1 UseB2=F ITyADJ=14
 ICtDFT=  3500011 ScaDFX=  1.000000  1.000000  1.000000  1.000000
 FoFCou: FMM=F IPFlag=           0 FMFlag=      100000 FMFlg1=           0
         NFxFlg=           0 DoJE=T BraDBF=F KetDBF=T FulRan=T
         wScrn=  0.000000 ICntrl=       500 IOpCl=  0 I1Cent=   200000004 NGrid=           0
         NMat0=    1 NMatS0=      1 NMatT0=    0 NMatD0=    1 NMtDS0=    0 NMtDT0=    0
 Symmetry not used in FoFCou.
 Keep R1 ints in memory in canonical form, NReq=47237243.
 Requested convergence on RMS density matrix=1.00D-08 within 128 cycles.
 Requested convergence on MAX density matrix=1.00D-06.
 Requested convergence on             energy=1.00D-06.
 No special actions if energy rises.
 SCF Done:  E(RB3LYP) =  -343.433766520     A.U. after   12 cycles
            NFock= 12  Conv=0.71D-08     -V/T= 2.0093
 DoSCS=F DFT=T ScalE2(SS,OS)=  1.000000  1.000000
 Range of M.O.s used for correlation:     1   126
 NBasis=   126 NAE=    24 NBE=    24 NFC=     0 NFV=     0
 NROrb=    126 NOA=    24 NOB=    24 NVA=   102 NVB=   102

 **** Warning!!: The largest alpha MO coefficient is  0.31494287D+02

 Symmetrizing basis deriv contribution to polar:
 IMax=3 JMax=2 DiffMx= 0.00D+00
 G2DrvN: will do    13 centers at a time, making    1 passes.
 Calling FoFCou, ICntrl=  3107 FMM=F I1Cent=   0 AccDes= 0.00D+00.
 End of G2Drv F.D. properties file   721 does not exist.
 End of G2Drv F.D. properties file   722 does not exist.
 End of G2Drv F.D. properties file   788 does not exist.
          IDoAtm=111111111111
          Differentiating once with respect to nuclear coordinates.
 Keep R1 ints in memory in canonical form, NReq=47193265.
          There are    39 degrees of freedom in the 1st order CPHF.  IDoFFX=6 NUNeed=     0.
     33 vectors produced by pass  0 Test12= 6.28D-15 2.56D-09 XBig12= 1.41D-01 1.14D-01.
 AX will form    33 AO Fock derivatives at one time.
     33 vectors produced by pass  1 Test12= 6.28D-15 2.56D-09 XBig12= 1.34D-02 2.86D-02.
     33 vectors produced by pass  2 Test12= 6.28D-15 2.56D-09 XBig12= 2.83D-04 4.31D-03.
     33 vectors produced by pass  3 Test12= 6.28D-15 2.56D-09 XBig12= 2.23D-06 2.62D-04.
     33 vectors produced by pass  4 Test12= 6.28D-15 2.56D-09 XBig12= 4.82D-09 7.67D-06.
     27 vectors produced by pass  5 Test12= 6.28D-15 2.56D-09 XBig12= 5.82D-12 2.83D-07.
      4 vectors produced by pass  6 Test12= 6.28D-15 2.56D-09 XBig12= 5.72D-15 8.43D-09.
 InvSVY:  IOpt=1 It=  1 EMax= 2.78D-15
 Solved reduced A of dimension   196 with    33 vectors.
 End of Minotr F.D. properties file   721 does not exist.
 End of Minotr F.D. properties file   722 does not exist.
 End of Minotr F.D. properties file   788 does not exist.
 Calling FoFJK, ICntrl=    100127 FMM=F ISym2X=0 I1Cent= 0 IOpClX= 0 NMat=1 NMatS=1 NMatT=0.
 -------------------------------------------------------------------
 Center     Atomic                   Forces (Hartrees/Bohr)
 Number     Number              X              Y              Z
 -------------------------------------------------------------------
      1        6           0.026797575   -0.011328176    0.000156835
      2        6           0.021122088   -0.010553086    0.033013722
      3        6          -0.011149975   -0.005294411   -0.005033398
      4        8           0.031847336   -0.017082982   -0.012692727
      5        8          -0.020782519    0.017002994   -0.008095061
      6        8           0.000024585    0.003670133    0.000761175
      7        1          -0.000668788    0.000408052   -0.000856810
      8        1          -0.000680003    0.000344102   -0.001039457
      9        1          -0.001317392    0.000298327   -0.001432292
     10        1          -0.000222140   -0.000730957    0.000597111
     11        1          -0.002882869    0.000996072   -0.003998830
     12        1          -0.042087898    0.022269931   -0.001380269
 -------------------------------------------------------------------
 Cartesian Forces:  Max     0.042087898 RMS     0.014183042
 IRC-IRC-IRC-IRC-IRC-IRC-IRC-IRC-IRC-IRC-IRC-IRC-IRC-IRC-IRC-IRC-IRC-IRC
 Pt  5 Step number   1 out of a maximum of 100
 Modified Bulirsch-Stoer Extrapolation Cycles:
    EPS =    0.000010000000000
      PEZero:  N= 2 I= 1 D=  8.43D-04 Err=  1.89D-05
      PEZero:  N= 3 I= 2 D=  8.43D-04 Err=  1.26D-05
      PEZero:  N= 3 I= 1 D=  1.69D-03 Err=  2.70D-08
 Maximum DWI energy   std dev =  0.000026984 at pt    19
 Maximum DWI gradient std dev =  0.004024102 at pt    27
 CORRECTOR INTEGRATION CONVERGENCE:
   Recorrection delta-x convergence threshold:    0.010000
   Delta-x Convergence Met
 Point Number:   5          Path Number:   1
   CHANGE IN THE REACTION COORDINATE =    0.16176
   NET REACTION COORDINATE UP TO THIS POINT =    0.80876
  # OF POINTS ALONG THE PATH =   5
  # OF STEPS =   1

 Calculating another point on the path.
 IRC-IRC-IRC-IRC-IRC-IRC-IRC-IRC-IRC-IRC-IRC-IRC-IRC-IRC-IRC-IRC-IRC-IRC
                          Input orientation:                          
 ---------------------------------------------------------------------
 Center     Atomic      Atomic             Coordinates (Angstroms)
 Number     Number       Type             X           Y           Z
 ---------------------------------------------------------------------
      1          6           0        0.289270    0.630198   -0.803934
      2          6           0       -0.757709    0.943550    0.194506
      3          6           0       -1.920763    0.047234    0.329299
      4          8           0        1.276921    0.223674    0.324613
      5          8           0        2.525382   -0.656724    0.090161
      6          8           0       -2.035863   -1.037807   -0.213241
      7          1           0        3.206355   -0.003333    0.337830
      8          1           0        0.093648   -0.250474   -1.414928
      9          1           0        0.733880    1.457132   -1.355848
     10          1           0       -2.700938    0.410491    1.030524
     11          1           0       -0.895189    1.980246    0.502345
     12          1           0       -0.024624    0.448765    1.037049
 ---------------------------------------------------------------------
                    Distance matrix (angstroms):
                    1          2          3          4          5
     1  C    0.000000
     2  C    1.480282   0.000000
     3  C    2.551139   1.474533   0.000000
     4  O    1.553813   2.162144   3.202551   0.000000
     5  O    2.730526   3.653827   4.507876   1.545550   0.000000
     6  O    2.921883   2.392846   1.218570   3.585409   4.587181
     7  H    3.195993   4.078104   5.127374   1.942788   0.975697
     8  H    1.089571   2.177333   2.681196   2.156607   2.888539
     9  H    1.089086   2.211832   3.445964   2.154127   3.125510
    10  H    3.514946   2.181563   1.110110   4.044325   5.416424
    11  H    2.220796   1.090140   2.195059   2.799142   4.338642
    12  H    1.876343   1.221517   2.063366   1.500749   2.936194
                    6          7          8          9         10
     6  O    0.000000
     7  H    5.371654   0.000000
     8  H    2.568805   3.580808   0.000000
     9  H    3.898942   3.333862   1.824639   0.000000
    10  H    2.021594   5.962146   3.771846   4.311404   0.000000
    11  H    3.304821   4.558982   3.103199   2.525945   2.450271
    12  H    2.796106   3.336544   2.552472   2.705197   2.676596
                   11         12
    11  H    0.000000
    12  H    1.840985   0.000000
 Symmetry turned off by external request.
 Stoichiometry    C3H6O3
 Framework group  C1[X(C3H6O3)]
 Deg. of freedom    30
 Full point group                 C1      NOp   1
 Rotational constants (GHZ):           7.7349611           1.7789110           1.6168642
 Standard basis: 6-31+G(d) (6D, 7F)
   126 basis functions,   216 primitive gaussians,   126 cartesian basis functions
    24 alpha electrons       24 beta electrons
       nuclear repulsion energy       233.0874977441 Hartrees.
 NAtoms=   12 NActive=   12 NUniq=   12 SFac= 1.00D+00 NAtFMM=   60 NAOKFM=F Big=F
 Integral buffers will be    131072 words long.
 Raffenetti 2 integral format.
 Two-electron integral symmetry is turned off.
 One-electron integrals computed using PRISM.
 NBasis=   126 RedAO= T EigKep=  1.12D-04  NBF=   126
 NBsUse=   126 1.00D-06 EigRej= -1.00D+00 NBFU=   126
 Initial guess from the checkpoint file:  "/scratch/bell/zhao922/YARP/paper-example/KHP-network/pp_0/IRC-folder/Gau-35814.chk"
 B after Tr=    -0.001536    0.000764   -0.000205
         Rot=    1.000000    0.000345    0.000108   -0.000067 Ang=   0.04 deg.
 ExpMin= 4.38D-02 ExpMax= 5.48D+03 ExpMxC= 8.25D+02 IAcc=3 IRadAn=         5 AccDes= 0.00D+00
 Harris functional with IExCor=  402 and IRadAn=       5 diagonalized for initial guess.
 HarFok:  IExCor=  402 AccDes= 0.00D+00 IRadAn=         5 IDoV= 1 UseB2=F ITyADJ=14
 ICtDFT=  3500011 ScaDFX=  1.000000  1.000000  1.000000  1.000000
 FoFCou: FMM=F IPFlag=           0 FMFlag=      100000 FMFlg1=           0
         NFxFlg=           0 DoJE=T BraDBF=F KetDBF=T FulRan=T
         wScrn=  0.000000 ICntrl=       500 IOpCl=  0 I1Cent=   200000004 NGrid=           0
         NMat0=    1 NMatS0=      1 NMatT0=    0 NMatD0=    1 NMtDS0=    0 NMtDT0=    0
 Symmetry not used in FoFCou.
 Keep R1 ints in memory in canonical form, NReq=47237243.
 Requested convergence on RMS density matrix=1.00D-08 within 128 cycles.
 Requested convergence on MAX density matrix=1.00D-06.
 Requested convergence on             energy=1.00D-06.
 No special actions if energy rises.
 SCF Done:  E(RB3LYP) =  -343.441908532     A.U. after   12 cycles
            NFock= 12  Conv=0.55D-08     -V/T= 2.0093
 DoSCS=F DFT=T ScalE2(SS,OS)=  1.000000  1.000000
 Range of M.O.s used for correlation:     1   126
 NBasis=   126 NAE=    24 NBE=    24 NFC=     0 NFV=     0
 NROrb=    126 NOA=    24 NOB=    24 NVA=   102 NVB=   102

 **** Warning!!: The largest alpha MO coefficient is  0.32084140D+02

 Symmetrizing basis deriv contribution to polar:
 IMax=3 JMax=2 DiffMx= 0.00D+00
 G2DrvN: will do    13 centers at a time, making    1 passes.
 Calling FoFCou, ICntrl=  3107 FMM=F I1Cent=   0 AccDes= 0.00D+00.
 End of G2Drv F.D. properties file   721 does not exist.
 End of G2Drv F.D. properties file   722 does not exist.
 End of G2Drv F.D. properties file   788 does not exist.
          IDoAtm=111111111111
          Differentiating once with respect to nuclear coordinates.
 Keep R1 ints in memory in canonical form, NReq=47193265.
          There are    39 degrees of freedom in the 1st order CPHF.  IDoFFX=6 NUNeed=     0.
     33 vectors produced by pass  0 Test12= 6.28D-15 2.56D-09 XBig12= 1.40D-01 1.00D-01.
 AX will form    33 AO Fock derivatives at one time.
     33 vectors produced by pass  1 Test12= 6.28D-15 2.56D-09 XBig12= 1.33D-02 3.39D-02.
     33 vectors produced by pass  2 Test12= 6.28D-15 2.56D-09 XBig12= 3.09D-04 4.10D-03.
     33 vectors produced by pass  3 Test12= 6.28D-15 2.56D-09 XBig12= 2.30D-06 2.18D-04.
     33 vectors produced by pass  4 Test12= 6.28D-15 2.56D-09 XBig12= 4.68D-09 8.27D-06.
     28 vectors produced by pass  5 Test12= 6.28D-15 2.56D-09 XBig12= 5.56D-12 3.39D-07.
      5 vectors produced by pass  6 Test12= 6.28D-15 2.56D-09 XBig12= 5.38D-15 8.26D-09.
 InvSVY:  IOpt=1 It=  1 EMax= 2.00D-15
 Solved reduced A of dimension   198 with    33 vectors.
 End of Minotr F.D. properties file   721 does not exist.
 End of Minotr F.D. properties file   722 does not exist.
 End of Minotr F.D. properties file   788 does not exist.
 Calling FoFJK, ICntrl=    100127 FMM=F ISym2X=0 I1Cent= 0 IOpClX= 0 NMat=1 NMatS=1 NMatT=0.
 -------------------------------------------------------------------
 Center     Atomic                   Forces (Hartrees/Bohr)
 Number     Number              X              Y              Z
 -------------------------------------------------------------------
      1        6           0.029931775   -0.013202645    0.002344375
      2        6           0.017735761   -0.008165987    0.031913834
      3        6          -0.012916373   -0.005122054   -0.006081519
      4        8           0.032860084   -0.017458488   -0.013034566
      5        8          -0.022624895    0.018124465   -0.009474341
      6        8          -0.000071222    0.003489306    0.000601277
      7        1          -0.000761866    0.000485702   -0.001007062
      8        1          -0.000681371    0.000357699   -0.001062444
      9        1          -0.001390468    0.000265011   -0.001398573
     10        1          -0.000327171   -0.000851467    0.000676245
     11        1          -0.003624244    0.001277042   -0.005048261
     12        1          -0.038130010    0.020801416    0.001571037
 -------------------------------------------------------------------
 Cartesian Forces:  Max     0.038130010 RMS     0.014083866
 IRC-IRC-IRC-IRC-IRC-IRC-IRC-IRC-IRC-IRC-IRC-IRC-IRC-IRC-IRC-IRC-IRC-IRC
 Reaction path inflection point has been passed.
   Previous lowest Hessian eigenvalue=   -0.0093366994
   Current lowest Hessian eigenvalue =    0.0000713103
 Pt  6 Step number   1 out of a maximum of 100
 Modified Bulirsch-Stoer Extrapolation Cycles:
    EPS =    0.000010000000000
      PEZero:  N= 2 I= 1 D=  8.42D-04 Err=  6.37D-05
      PEZero:  N= 3 I= 2 D=  8.42D-04 Err=  4.25D-05
      PEZero:  N= 3 I= 1 D=  1.68D-03 Err=  3.98D-08
 Maximum DWI energy   std dev =  0.000028470 at pt    19
 Maximum DWI gradient std dev =  0.006679694 at pt    27
 CORRECTOR INTEGRATION CONVERGENCE:
   Recorrection delta-x convergence threshold:    0.010000
   Delta-x Convergence Met
 Point Number:   6          Path Number:   1
   CHANGE IN THE REACTION COORDINATE =    0.16170
   NET REACTION COORDINATE UP TO THIS POINT =    0.97047
  # OF POINTS ALONG THE PATH =   6
  # OF STEPS =   1

 Calculating another point on the path.
 IRC-IRC-IRC-IRC-IRC-IRC-IRC-IRC-IRC-IRC-IRC-IRC-IRC-IRC-IRC-IRC-IRC-IRC
                          Input orientation:                          
 ---------------------------------------------------------------------
 Center     Atomic      Atomic             Coordinates (Angstroms)
 Number     Number       Type             X           Y           Z
 ---------------------------------------------------------------------
      1          6           0        0.294248    0.627942   -0.803301
      2          6           0       -0.755295    0.942523    0.199328
      3          6           0       -1.922941    0.046469    0.328257
      4          8           0        1.280818    0.221601    0.323069
      5          8           0        2.522588   -0.654508    0.088934
      6          8           0       -2.035884   -1.037426   -0.213194
      7          1           0        3.204841   -0.002348    0.335761
      8          1           0        0.092434   -0.249817   -1.416870
      9          1           0        0.731255    1.457546   -1.358350
     10          1           0       -2.701686    0.408777    1.031835
     11          1           0       -0.902823    1.983022    0.491686
     12          1           0       -0.090158    0.485528    1.043598
 ---------------------------------------------------------------------
                    Distance matrix (angstroms):
                    1          2          3          4          5
     1  C    0.000000
     2  C    1.485183   0.000000
     3  C    2.556259   1.477475   0.000000
     4  O    1.551497   2.163515   3.208546   0.000000
     5  O    2.721445   3.647905   4.506814   1.537654   0.000000
     6  O    2.924242   2.393800   1.216862   3.587929   4.584493
     7  H    3.188460   4.073582   5.128019   1.937054   0.975554
     8  H    1.089797   2.180004   2.682347   2.159139   2.887364
     9  H    1.089632   2.213920   3.446815   2.157950   3.124785
    10  H    3.520139   2.183206   1.110285   4.049410   5.414118
    11  H    2.224008   1.090814   2.194900   2.810573   4.341914
    12  H    1.891848   1.167923   2.015832   1.571113   3.006245
                    6          7          8          9         10
     6  O    0.000000
     7  H    5.370096   0.000000
     8  H    2.568832   3.580508   0.000000
     9  H    3.897861   3.334656   1.823899   0.000000
    10  H    2.021111   5.961594   3.773196   4.312538   0.000000
    11  H    3.302088   4.564965   3.101402   2.523682   2.450697
    12  H    2.772140   3.405301   2.574486   2.718253   2.612682
                   11         12
    11  H    0.000000
    12  H    1.790955   0.000000
 Symmetry turned off by external request.
 Stoichiometry    C3H6O3
 Framework group  C1[X(C3H6O3)]
 Deg. of freedom    30
 Full point group                 C1      NOp   1
 Rotational constants (GHZ):           7.7453372           1.7786732           1.6171180
 Standard basis: 6-31+G(d) (6D, 7F)
   126 basis functions,   216 primitive gaussians,   126 cartesian basis functions
    24 alpha electrons       24 beta electrons
       nuclear repulsion energy       233.1672618783 Hartrees.
 NAtoms=   12 NActive=   12 NUniq=   12 SFac= 1.00D+00 NAtFMM=   60 NAOKFM=F Big=F
 Integral buffers will be    131072 words long.
 Raffenetti 2 integral format.
 Two-electron integral symmetry is turned off.
 One-electron integrals computed using PRISM.
 NBasis=   126 RedAO= T EigKep=  1.13D-04  NBF=   126
 NBsUse=   126 1.00D-06 EigRej= -1.00D+00 NBFU=   126
 Initial guess from the checkpoint file:  "/scratch/bell/zhao922/YARP/paper-example/KHP-network/pp_0/IRC-folder/Gau-35814.chk"
 B after Tr=    -0.001536    0.000776   -0.000126
         Rot=    1.000000    0.000365    0.000105   -0.000075 Ang=   0.04 deg.
 ExpMin= 4.38D-02 ExpMax= 5.48D+03 ExpMxC= 8.25D+02 IAcc=3 IRadAn=         5 AccDes= 0.00D+00
 Harris functional with IExCor=  402 and IRadAn=       5 diagonalized for initial guess.
 HarFok:  IExCor=  402 AccDes= 0.00D+00 IRadAn=         5 IDoV= 1 UseB2=F ITyADJ=14
 ICtDFT=  3500011 ScaDFX=  1.000000  1.000000  1.000000  1.000000
 FoFCou: FMM=F IPFlag=           0 FMFlag=      100000 FMFlg1=           0
         NFxFlg=           0 DoJE=T BraDBF=F KetDBF=T FulRan=T
         wScrn=  0.000000 ICntrl=       500 IOpCl=  0 I1Cent=   200000004 NGrid=           0
         NMat0=    1 NMatS0=      1 NMatT0=    0 NMatD0=    1 NMtDS0=    0 NMtDT0=    0
 Symmetry not used in FoFCou.
 Keep R1 ints in memory in canonical form, NReq=47237243.
 Requested convergence on RMS density matrix=1.00D-08 within 128 cycles.
 Requested convergence on MAX density matrix=1.00D-06.
 Requested convergence on             energy=1.00D-06.
 No special actions if energy rises.
 SCF Done:  E(RB3LYP) =  -343.449015235     A.U. after   12 cycles
            NFock= 12  Conv=0.39D-08     -V/T= 2.0092
 DoSCS=F DFT=T ScalE2(SS,OS)=  1.000000  1.000000
 Range of M.O.s used for correlation:     1   126
 NBasis=   126 NAE=    24 NBE=    24 NFC=     0 NFV=     0
 NROrb=    126 NOA=    24 NOB=    24 NVA=   102 NVB=   102

 **** Warning!!: The largest alpha MO coefficient is  0.32297470D+02

 Symmetrizing basis deriv contribution to polar:
 IMax=3 JMax=2 DiffMx= 0.00D+00
[...]
  35                    0.41785   1.02611  -0.86121   1.96683   0.56523
  36                    0.41868   1.02505  -0.86191   1.96750   0.55972
  37                    0.41891   1.02450  -0.86352   1.96849   0.55393
  38                    0.41866   1.02439  -0.86574   1.96962   0.54820
  39                    0.41809   1.02462  -0.86828   1.97076   0.54278
  40                    0.41733   1.02510  -0.87095   1.97183   0.53781
  41                    0.41649   1.02572  -0.87363   1.97281   0.53333
  42                    0.41564   1.02636  -0.87634   1.97375   0.52901
  43                    0.41478   1.02705  -0.87913   1.97469   0.52482
  44                    0.41388   1.02778  -0.88217   1.97571   0.52045
  45                    0.41291   1.02858  -0.88564   1.97689   0.51557
  46                    0.41180   1.02948  -0.88984   1.97834   0.50974
  47                    0.41047   1.03054  -0.89529   1.98027   0.50219
  48                    0.40876   1.03186  -0.90295   1.98304   0.49148
  49                    0.40653   1.03338  -0.91403   1.98708   0.47559
  50                    0.40399   1.03468  -0.92871   1.99219   0.45366
  51                    0.40154   1.03508  -0.94598   1.99758   0.42646
  52                    0.39955   1.03402  -0.96473   2.00249   0.39533
  53                    0.39824   1.03123  -0.98397   2.00644   0.36166
  54                    0.39769   1.02675  -1.00300   2.00923   0.32664
  55                    0.39788   1.02082  -1.02138   2.01082   0.29107
  56                    0.39865   1.01383  -1.03889   2.01129   0.25551
  57                    0.39985   1.00624  -1.05538   2.01075   0.22032
  58                    0.40124   0.99851  -1.07082   2.00934   0.18578
  59                    0.40264   0.99104  -1.08519   2.00720   0.15208
  60                    0.40389   0.98413  -1.09852   2.00447   0.11929
  61                    0.40486   0.97798  -1.11085   2.00126   0.08746
  62                    0.40548   0.97270  -1.12227   1.99766   0.05653
  63                    0.40573   0.96830  -1.13283   1.99373   0.02642
  64                    0.40560   0.96476  -1.14261   1.98950  -0.00302
  65                    0.40510   0.96201  -1.15170   1.98497  -0.03191
  66                    0.40427   0.95996  -1.16016   1.98014  -0.06039
  67                    0.40313   0.95853  -1.16809   1.97498  -0.08859
  68                    0.40172   0.95763  -1.17553   1.96945  -0.11666
  69                    0.40005   0.95721  -1.18257   1.96351  -0.14471
  70                    0.39814   0.95723  -1.18927   1.95710  -0.17286
  71                    0.39598   0.95770  -1.19567   1.95019  -0.20121
  72                    0.39356   0.95866  -1.20183   1.94272  -0.22985
  73                    0.39085   0.96022  -1.20782   1.93464  -0.25889
  74                    0.38778   0.96258  -1.21371   1.92593  -0.28842
  75                    0.38428   0.96610  -1.21958   1.91659  -0.31843
  76                    0.38025   0.97136  -1.22554   1.90677  -0.34855
  77                    0.37573   0.97898  -1.23159   1.89713  -0.37723
  78                    0.37103   0.98869  -1.23754   1.88870  -0.40197
  79                    0.36636   0.99938  -1.24325   1.88175  -0.42233
  80                    0.36169   1.01031  -1.24882   1.87577  -0.43986
  81                    0.35690   1.02122  -1.25437   1.87029  -0.45585
                          X12       Y12       Z12
   1                    0.99755  -0.55262   0.92913
   2                    0.99251  -0.54633   0.93420
   3                    0.98723  -0.53991   0.93872
   4                    0.98172  -0.53338   0.94272
   5                    0.97599  -0.52672   0.94625
   6                    0.97005  -0.51993   0.94934
   7                    0.96389  -0.51300   0.95204
   8                    0.95752  -0.50595   0.95437
   9                    0.95095  -0.49875   0.95636
  10                    0.94417  -0.49140   0.95804
  11                    0.93717  -0.48392   0.95941
  12                    0.92995  -0.47629   0.96050
  13                    0.92250  -0.46851   0.96134
  14                    0.91479  -0.46060   0.96194
  15                    0.90683  -0.45256   0.96234
  16                    0.89859  -0.44441   0.96257
  17                    0.89007  -0.43615   0.96271
  18                    0.88130  -0.42781   0.96280
  19                    0.87232  -0.41942   0.96291
  20                    0.86319  -0.41101   0.96310
  21                    0.85400  -0.40258   0.96344
  22                    0.84484  -0.39412   0.96396
  23                    0.83577  -0.38558   0.96472
  24                    0.82687  -0.37682   0.96579
  25                    0.81816  -0.36765   0.96732
  26                    0.80965  -0.35774   0.96952
  27                    0.80128  -0.34654   0.97275
  28                    0.79290  -0.33320   0.97760
  29                    0.78423  -0.31640   0.98493
  30                    0.77476  -0.29445   0.99571
  31                    0.76375  -0.26572   1.01045
  32                    0.75032  -0.22955   1.02841
  33                    0.73350  -0.18649   1.04752
  34                    0.71223  -0.13784   1.06509
  35                    0.68543  -0.08520   1.07866
  36                    0.65235  -0.03028   1.08640
  37                    0.61278   0.02511   1.08759
  38                    0.56689   0.07936   1.08280
  39                    0.51476   0.13105   1.07415
  40                    0.45641   0.17908   1.06481
  41                    0.39210   0.22256   1.05739
  42                    0.32498   0.26350   1.05234
  43                    0.25533   0.30167   1.04873
  44                    0.18477   0.33863   1.04529
  45                    0.11418   0.37523   1.04156
  46                    0.04417   0.41189   1.03821
  47                   -0.02448   0.44874   1.03756
  48                   -0.08982   0.48537   1.04456
  49                   -0.14677   0.52045   1.06494
  50                   -0.19091   0.55369   1.09554
  51                   -0.22394   0.58717   1.12667
  52                   -0.24868   0.62203   1.15360
  53                   -0.26725   0.65818   1.17583
  54                   -0.28159   0.69526   1.19405
  55                   -0.29330   0.73288   1.20896
  56                   -0.30359   0.77065   1.22109
  57                   -0.31324   0.80816   1.23076
  58                   -0.32272   0.84503   1.23823
  59                   -0.33228   0.88096   1.24371
  60                   -0.34205   0.91573   1.24740
  61                   -0.35208   0.94922   1.24949
  62                   -0.36240   0.98144   1.25020
  63                   -0.37300   1.01245   1.24969
  64                   -0.38389   1.04240   1.24814
  65                   -0.39504   1.07144   1.24565
  66                   -0.40646   1.09976   1.24234
  67                   -0.41812   1.12756   1.23825
  68                   -0.43001   1.15501   1.23343
  69                   -0.44212   1.18227   1.22789
  70                   -0.45445   1.20951   1.22162
  71                   -0.46698   1.23686   1.21457
  72                   -0.47971   1.26448   1.20670
  73                   -0.49260   1.29248   1.19790
  74                   -0.50560   1.32100   1.18804
  75                   -0.51850   1.35008   1.17693
  76                   -0.53080   1.37941   1.16446
  77                   -0.54134   1.40752   1.15096
  78                   -0.54897   1.43203   1.13763
  79                   -0.55410   1.45250   1.12533
  80                   -0.55796   1.47038   1.11390
  81                   -0.56137   1.48692   1.10299
 --------------------------------------------------------------------------
 
 Total number of points:                   80
 Total number of gradient calculations:    81
 Total number of Hessian calculations:     81
 IRC-IRC-IRC-IRC-IRC-IRC-IRC-IRC-IRC-IRC-IRC-IRC-IRC-IRC-IRC-IRC-IRC-IRC
                          Input orientation:                          
 ---------------------------------------------------------------------
 Center     Atomic      Atomic             Coordinates (Angstroms)
 Number     Number       Type             X           Y           Z
 ---------------------------------------------------------------------
      1          6           0       -0.113274    0.890635   -0.997938
      2          6           0       -1.019906    1.093096   -0.025369
      3          6           0       -1.996814    0.051941    0.331674
      4          8           0        1.592926    0.096759    0.509794
      5          8           0        2.713863   -0.753431    0.148461
      6          8           0       -2.031206   -1.068621   -0.158899
      7          1           0        3.443694   -0.271956    0.577725
      8          1           0       -0.095492   -0.045143   -1.549607
      9          1           0        0.608309    1.648598   -1.281428
     10          1           0       -2.742478    0.336442    1.103876
     11          1           0       -1.058429    2.028008    0.530290
     12          1           0        0.997544   -0.552676    0.929161
 ---------------------------------------------------------------------
                    Distance matrix (angstroms):
                    1          2          3          4          5
     1  C    0.000000
     2  C    1.344939   0.000000
     3  C    2.453365   1.471676   0.000000
     4  O    2.411351   2.847100   3.594435   0.000000
     5  O    3.465529   4.169042   4.782538   1.452544   0.000000
     6  O    2.867252   2.390309   1.223726   3.865177   4.765449
     7  H    4.060339   4.706465   5.455691   1.888361   0.974032
     8  H    1.086433   2.115048   2.676503   2.666838   3.358212
     9  H    1.084231   2.130106   3.455152   2.566350   3.499670
    10  H    3.411373   2.194305   1.110519   4.382477   5.645556
    11  H    2.126597   1.088256   2.196555   3.280218   4.702381
    12  H    2.651560   2.773048   3.112672   0.975763   1.896193
                    6          7          8          9         10
     6  O    0.000000
     7  H    5.581382   0.000000
     8  H    2.593948   4.135556   0.000000
     9  H    3.950999   3.896715   1.853649   0.000000
    10  H    2.018592   6.238245   3.767375   4.317315   0.000000
    11  H    3.318190   5.055808   3.090497   2.490842   2.454876
    12  H    3.259356   2.487159   2.756194   3.143854   3.848222
                   11         12
    11  H    0.000000
    12  H    3.323560   0.000000
 Symmetry turned off by external request.
 Stoichiometry    C3H6O3
 Framework group  C1[X(C3H6O3)]
 Deg. of freedom    30
 Full point group                 C1      NOp   1
 Rotational constants (GHZ):           6.1808709           1.5295346           1.3690514

 **********************************************************************

            Population analysis using the SCF Density.

 **********************************************************************

 Alpha  occ. eigenvalues --  -19.23819 -19.23380 -19.15400 -10.28131 -10.22322
 Alpha  occ. eigenvalues --  -10.20392  -1.14277  -1.04534  -0.92520  -0.79693
 Alpha  occ. eigenvalues --   -0.66397  -0.55414  -0.54802  -0.52356  -0.51087
 Alpha  occ. eigenvalues --   -0.45205  -0.44595  -0.42757  -0.40040  -0.38889
 Alpha  occ. eigenvalues --   -0.35479  -0.30957  -0.27069  -0.26380
 Alpha virt. eigenvalues --   -0.07562  -0.01609   0.00243   0.01908   0.03001
 Alpha virt. eigenvalues --    0.04177   0.05387   0.06033   0.07173   0.07509
 Alpha virt. eigenvalues --    0.08531   0.10799   0.11638   0.11915   0.13508
 Alpha virt. eigenvalues --    0.14934   0.15804   0.18053   0.18552   0.19629
 Alpha virt. eigenvalues --    0.20875   0.22102   0.23473   0.25004   0.25595
 Alpha virt. eigenvalues --    0.25934   0.26994   0.28964   0.29323   0.32675
 Alpha virt. eigenvalues --    0.33480   0.34323   0.35985   0.39389   0.39677
 Alpha virt. eigenvalues --    0.48441   0.63262   0.66440   0.68781   0.73198
 Alpha virt. eigenvalues --    0.74960   0.76913   0.82342   0.87601   0.91650
 Alpha virt. eigenvalues --    0.93033   0.96555   0.97261   1.00344   1.03693
 Alpha virt. eigenvalues --    1.06093   1.07304   1.08207   1.09283   1.10724
 Alpha virt. eigenvalues --    1.17779   1.22170   1.23567   1.26314   1.27817
 Alpha virt. eigenvalues --    1.30392   1.34993   1.35894   1.38335   1.43269
 Alpha virt. eigenvalues --    1.44742   1.51615   1.55155   1.57207   1.62442
 Alpha virt. eigenvalues --    1.65507   1.67557   1.71635   1.75663   1.81614
 Alpha virt. eigenvalues --    1.81991   1.84270   1.93085   1.96426   2.03845
 Alpha virt. eigenvalues --    2.06202   2.19808   2.20477   2.27432   2.31030
 Alpha virt. eigenvalues --    2.35381   2.36792   2.49432   2.50902   2.54083
 Alpha virt. eigenvalues --    2.57843   2.62533   2.78233   2.98900   3.08939
 Alpha virt. eigenvalues --    3.13440   3.76802   4.09564   4.13528   4.24836
 Alpha virt. eigenvalues --    4.31300   4.46921
          Condensed to atoms (all electrons):
               1          2          3          4          5          6
     1  C    5.647989   0.002673   0.022737   0.032349   0.039461   0.077346
     2  C    0.002673   6.207374  -0.020969  -0.065225  -0.015863  -0.241793
     3  C    0.022737  -0.020969   5.064189  -0.021093   0.000294   0.456111
     4  O    0.032349  -0.065225  -0.021093   8.273154   0.023574   0.004126
     5  O    0.039461  -0.015863   0.000294   0.023574   8.301408  -0.000827
     6  O    0.077346  -0.241793   0.456111   0.004126  -0.000827   8.187330
     7  H    0.000314  -0.000810  -0.000332  -0.023557   0.180241   0.000034
     8  H    0.406535  -0.072667  -0.003333  -0.010608   0.001114   0.005104
     9  H    0.356988  -0.027443   0.014988  -0.013779   0.001729   0.000380
    10  H    0.046348  -0.221890   0.449616   0.000126   0.000017  -0.067788
    11  H   -0.004695   0.287499   0.002917   0.000090  -0.000082   0.005816
    12  H   -0.025563   0.017803   0.016408   0.205906  -0.043038  -0.000591
               7          8          9         10         11         12
     1  C    0.000314   0.406535   0.356988   0.046348  -0.004695  -0.025563
     2  C   -0.000810  -0.072667  -0.027443  -0.221890   0.287499   0.017803
     3  C   -0.000332  -0.003333   0.014988   0.449616   0.002917   0.016408
     4  O   -0.023557  -0.010608  -0.013779   0.000126   0.000090   0.205906
     5  O    0.180241   0.001114   0.001729   0.000017  -0.000082  -0.043038
     6  O    0.000034   0.005104   0.000380  -0.067788   0.005816  -0.000591
     7  H    0.371802  -0.000025  -0.000037  -0.000000   0.000001   0.002317
     8  H   -0.000025   0.457993  -0.028873   0.000152   0.004018   0.000393
     9  H   -0.000037  -0.028873   0.486853  -0.000107  -0.004493   0.000725
    10  H   -0.000000   0.000152  -0.000107   0.638293   0.001412   0.000032
    11  H    0.000001   0.004018  -0.004493   0.001412   0.520492  -0.000032
    12  H    0.002317   0.000393   0.000725   0.000032  -0.000032   0.338759
 Mulliken charges:
               1
     1  C   -0.602483
     2  C    0.151311
     3  C    0.018469
     4  O   -0.405064
     5  O   -0.488028
     6  O   -0.425247
     7  H    0.470051
     8  H    0.240197
     9  H    0.213068
    10  H    0.153789
    11  H    0.187057
    12  H    0.486879
 Sum of Mulliken charges =  -0.00000
 Mulliken charges with hydrogens summed into heavy atoms:
               1
     1  C   -0.149218
     2  C    0.338368
     3  C    0.172259
     4  O    0.081816
     5  O   -0.017977
     6  O   -0.425247
 APT charges:
               1
     1  C   -1.049227
     2  C   -0.116523
     3  C   -0.387395
     4  O   -0.289702
     5  O   -0.977502
     6  O   -0.388030
     7  H    0.829581
     8  H    0.360915
     9  H    0.513696
    10  H    0.518994
    11  H    0.487028
    12  H    0.498165
 Sum of APT charges =  -0.00000
 APT charges with hydrogens summed into heavy atoms:
               1
     1  C   -0.174616
     2  C    0.370505
     3  C    0.131599
     4  O    0.208462
     5  O   -0.147921
     6  O   -0.388030
 Electronic spatial extent (au):  <R**2>=            840.3228
 Charge=             -0.0000 electrons
 Dipole moment (field-independent basis, Debye):
    X=              2.1151    Y=              2.5315    Z=              1.6412  Tot=              3.6845
 Quadrupole moment (field-independent basis, Debye-Ang):
   XX=            -33.1462   YY=            -38.9246   ZZ=            -34.1425
   XY=             -2.8997   XZ=              0.1281   YZ=             -1.4752
 Traceless Quadrupole moment (field-independent basis, Debye-Ang):
   XX=              2.2583   YY=             -3.5201   ZZ=              1.2619
   XY=             -2.8997   XZ=              0.1281   YZ=             -1.4752
 Octapole moment (field-independent basis, Debye-Ang**2):
  XXX=             51.1852  YYY=             -2.9014  ZZZ=              2.4300  XYY=              7.9677
  XXY=             11.5413  XXZ=             16.6751  XZZ=              5.1306  YZZ=             -4.6091
  YYZ=              1.7781  XYZ=             -3.0955
 Hexadecapole moment (field-independent basis, Debye-Ang**3):
 XXXX=           -587.9967 YYYY=           -190.3829 ZZZZ=           -108.6404 XXXY=             12.6125
 XXXZ=             16.4785 YYYX=             22.2608 YYYZ=             16.1361 ZZZX=            -14.0565
 ZZZY=             13.6928 XXYY=           -179.6113 XXZZ=           -137.2512 YYZZ=            -49.7751
 XXYZ=              3.0085 YYXZ=            -10.2022 ZZXY=              8.6852
 N-N= 2.203758160461D+02 E-N=-1.245710160411D+03  KE= 3.403700494006D+02
  Exact polarizability:   0.000   0.000   0.000   0.000   0.000   0.000
 Approx polarizability:  90.155   3.683  77.656 -20.060   5.612  67.161

 This type of calculation cannot be archived.


 "THE ACADEMIC HIERARCHY"


 THE PRESIDENT:
   LEAPS TALL BUILDINGS IN A SINGLE BOUND,
     IS MORE POWERFUL THAN A LOCOMOTIVE,
       IS FASTER THAN A SPEEDING BULLET,
         WALKS ON WATER,
           GIVES POLICY TO GOD.

 THE VICE PRESIDENT FOR ACADEMIC AFFAIRS:
   LEAPS SHORT BUILDINGS IN A SINGLE BOUND,
     IS MORE POWERFUL THAN A SWITCH ENGINE,
       IS JUST AS FAST AS A SPEEDING BULLET,
         WALKS ON WATER IF SEA IS CALM,
           TALKS WITH GOD.

 PROFESSOR:
   LEAPS SHORT BUILDINGS WITH A RUNNING START AND FAVORABLE WINDS,
     IS ALMOST AS POWERFUL AS A SWITCH ENGINE,
       CAN FIRE A SPEEDING BULLET,
         WALKS ON WATER IN AN INDOOR SWIMMING POOL,
          TALKS WITH GOD IF SPECIAL REQUEST IS APPROVED.

 ASSOCIATE PROFESSOR:
   BARELY CLEARS A QUONSET HUT,
     LOSES TUG OF WAR WITH LOCOMOTIVE,
       MISFIRES FREQUENTLY,
         SWIMS WELL,
           IS OCCASIONALLY ADDRESSED BY GOD.

 ASSISTANT PROFESSOR:
   MAKES HIGH MARKS ON WALLS WHEN TRYING TO LEAP TALL BUILDINGS,
     IS RUN OVER BY LOCOMOTIVES,
       CAN SOMETIMES HANDLE A GUN WITHOUT INFLICTING SELF INJURY,
         DOG PADDLES,
           TALKS TO ANIMALS.

 GRADUATE STUDENT:
   RUNS INTO BUILDINGS,
     RECOGNIZES LOCOMOTIVES TWO OUT OF THREE TIMES,
       IS NOT ISSUED AMMUNITION,
         CAN STAY AFLOAT WITH A LIFE JACKET,
           TALKS TO WALLS.

 UNDERGRADUATE AND WORK STUDY STUDENT:
   FALLS OVER DOORSTEP WHEN TRYING TO ENTER BUILDINGS,
     SAYS, "LOOK AT THE CHOO-CHOO,"
       WETS HIMSELF WITH A WATER PISTOL,
        PLAYS IN MUD PUDDLES,
          MUMBLES TO HIMSELF.

 DEPARTMENT SECRETARY:
   LIFTS TALL BUILDINGS AND WALKS UNDER THEM,
     KICKS LOCOMOTIVES OFF THE TRACKS,
       CATCHES SPEEDING BULLETS IN HER TEETH AND EATS THEM,
         FREEZES WATER WITH A SINGLE GLANCE,
           IS GOD.
 Job cpu time:       0 days  6 hours  0 minutes 59.5 seconds.
 Elapsed time:       0 days  0 hours 23 minutes  6.5 seconds.
 File lengths (MBytes):  RWF=     28 Int=      0 D2E=      0 Chk=      4 Scr=      1
 Normal termination of Gaussian 16 at Wed Dec 23 22:39:53 2020.
