 Entering Gaussian System, Link 0=g16
 Initial command:
 /apps/cent7/gaussian/g16-B.01/g16-haswell/g16/l1.exe "/scratch/bell/zhao922/YARP/paper-example/KHP-network/pp_0/IRC-folder/Gau-37441.inp" -scrdir="/scratch/bell/zhao922/YARP/paper-example/KHP-network/pp_0/IRC-folder/"
 Entering Link 1 = /apps/cent7/gaussian/g16-B.01/g16-haswell/g16/l1.exe PID=     37443.
  
 Copyright (c) 1988-2017, Gaussian, Inc.  All Rights Reserved.
  
 This is part of the Gaussian(R) 16 program.  It is based on
 the Gaussian(R) 09 system (copyright 2009, Gaussian, Inc.),
 the Gaussian(R) 03 system (copyright 2003, Gaussian, Inc.),
 the Gaussian(R) 98 system (copyright 1998, Gaussian, Inc.),
 the Gaussian(R) 94 system (copyright 1995, Gaussian, Inc.),
 the Gaussian 92(TM) system (copyright 1992, Gaussian, Inc.),
 the Gaussian 90(TM) system (copyright 1990, Gaussian, Inc.),
 the Gaussian 88(TM) system (copyright 1988, Gaussian, Inc.),
 the Gaussian 86(TM) system (copyright 1986, Carnegie Mellon
 University), and the Gaussian 82(TM) system (copyright 1983,
 Carnegie Mellon University). Gaussian is a federally registered
 trademark of Gaussian, Inc.
  
 This software contains proprietary and confidential information,
 including trade secrets, belonging to Gaussian, Inc.
  
 This software is provided under written license and may be
 used, copied, transmitted, or stored only in accord with that
 written license.
  
 The following legend is applicable only to US Government
 contracts under FAR:
  
                    RESTRICTED RIGHTS LEGEND
  
 Use, reproduction and disclosure by the US Government is
 subject to restrictions as set forth in subparagraphs (a)
 and (c) of the Commercial Computer Software - Restricted
 Rights clause in FAR 52.227-19.
  
 Gaussian, Inc.
 340 Quinnipiac St., Bldg. 40, Wallingford CT 06492
  
  
 ---------------------------------------------------------------
 Warning -- This program may not be used in any manner that
 competes with the business of Gaussian, Inc. or will provide
 assistance to any competitor of Gaussian, Inc.  The licensee
 of this program is prohibited from giving any competitor of
 Gaussian, Inc. access to this program.  By using this program,
 the user acknowledges that Gaussian, Inc. is engaged in the
 business of creating and licensing software in the field of
 computational chemistry and represents and warrants to the
 licensee that it is not a competitor of Gaussian, Inc. and that
 it will not use this program in any manner prohibited above.
 ---------------------------------------------------------------
  

 Cite this work as:
 Gaussian 16, Revision B.01,
 M. J. Frisch, G. W. Trucks, H. B. Schlegel, G. E. Scuseria, 
 M. A. Robb, J. R. Cheeseman, G. Scalmani, V. Barone, 
 G. A. Petersson, H. Nakatsuji, X. Li, M. Caricato, A. V. Marenich, 
 J. Bloino, B. G. Janesko, R. Gomperts, B. Mennucci, H. P. Hratchian, 
 J. V. Ortiz, A. F. Izmaylov, J. L. Sonnenberg, D. Williams-Young, 
 F. Ding, F. Lipparini, F. Egidi, J. Goings, B. Peng, A. Petrone, 
 T. Henderson, D. Ranasinghe, V. G. Zakrzewski, J. Gao, N. Rega, 
 G. Zheng, W. Liang, M. Hada, M. Ehara, K. Toyota, R. Fukuda, 
 J. Hasegawa, M. Ishida, T. Nakajima, Y. Honda, O. Kitao, H. Nakai, 
 T. Vreven, K. Throssell, J. A. Montgomery, Jr., J. E. Peralta, 
 F. Ogliaro, M. J. Bearpark, J. J. Heyd, E. N. Brothers, K. N. Kudin, 
 V. N. Staroverov, T. A. Keith, R. Kobayashi, J. Normand, 
 K. Raghavachari, A. P. Rendell, J. C. Burant, S. S. Iyengar, 
 J. Tomasi, M. Cossi, J. M. Millam, M. Klene, C. Adamo, R. Cammi, 
 J. W. Ochterski, R. L. Martin, K. Morokuma, O. Farkas, 
 J. B. Foresman, and D. J. Fox, Gaussian, Inc., Wallingford CT, 2016.
 
 ******************************************
 Gaussian 16:  ES64L-G16RevB.01 20-Dec-2017
                23-Dec-2020 
 ******************************************
 %NProcShared=16
 Will use up to   16 processors via shared memory.
 %Mem=6GB
 ----------------------------------------------------------------------
 # B3LYP/6-31+G* IRC=(CALCALL, maxpoints=40, StepSize=15, maxcyc=100, R
 eport=Cartesians)
 ----------------------------------------------------------------------
 1/6=100,10=4,18=10,26=3,38=1,39=15,42=40,44=3,71=1,129=10,172=1/1,23;
 2/12=2,17=6,18=5,29=1,40=1/2;
 3/5=1,6=6,7=11,11=2,25=1,30=1,71=2,74=-5,140=1/1,2,3;
 4//1;
 5/5=2,38=5/2;
 8/6=4,10=90,11=11/1;
 11/6=1,8=1,9=11,15=111,16=1/1,2,10;
 10/6=1,13=1/2;
 6/7=2,8=2,9=2,10=2,18=1,28=1/1;
 7/10=1,25=1/1,2,3,16;
 1/6=100,10=4,18=10,26=3,39=15,42=40,44=3,71=1,129=10/23(2);
 2/29=1/2;
 99/5=20/99;
 2/29=1/2;
 3/5=1,6=6,7=11,11=2,25=1,30=1,71=2,74=-5,140=1/1,2,3;
 4/5=5,16=3,69=1/1;
 5/5=2,38=5/2;
 8/6=4,10=90,11=11/1;
 11/6=1,8=1,9=11,15=111,16=1/1,2,10;
 10/6=1,13=1/2;
 7/10=1,25=1/1,2,3,16;
 1/6=100,10=4,18=10,26=3,39=15,42=40,44=3,71=1,129=10/23(-8);
 2/29=1/2;
 6/7=2,8=2,9=2,10=2,18=1,19=2,28=1/1;
 99/5=20/99;
 ----------
 pp_9_3 IRC
 ----------
 Symbolic Z-matrix:
 Charge =  0 Multiplicity = 1
 C                     0.19482  -0.43671   0.2491 
 C                    -0.94357   1.39013  -0.01624 
 C                    -1.2121   -0.25902  -0.33988 
 O                     1.19994  -0.46423  -0.4902 
 O                     2.53164   0.1765    0.29536 
 O                    -2.18749  -0.74611   0.30701 
 H                     3.20552  -0.29999  -0.22803 
 H                     0.28507  -0.4622    1.3359 
 H                    -0.11739   1.82974  -0.58032 
 H                    -1.17964  -0.31972  -1.4472 
 H                    -1.90388   1.75595  -0.38891 
 H                    -0.8773    1.60055   1.05333 
 
 IRC-IRC-IRC-IRC-IRC-IRC-IRC-IRC-IRC-IRC-IRC-IRC-IRC-IRC-IRC-IRC-IRC-IRC
 ------------------------------------------------------------------------
 INPUT DATA FOR L123
 ------------------------------------------------------------------------
 GENERAL PARAMETERS:
 Follow reaction path in both directions.
 Maximum points per path      =  40
 Step size                    =   0.150 bohr
 Integration scheme           = HPC                                 
    Redo corrector integration= Yes                                 
    DWI Weight Power          =  2
    DWI will use Hessian update vectors when possible.
    Max correction cycles     = 100
 Initial Hessian              = CalcFC
 Hessian evaluation           = Analytic at all predictor steps
                              = Update at all corrector steps
 Hessian updating method      = Bofill                              
 ------------------------------------------------------------------------
 IRC-IRC-IRC-IRC-IRC-IRC-IRC-IRC-IRC-IRC-IRC-IRC-IRC-IRC-IRC-IRC-IRC-IRC
                          Input orientation:                          
 ---------------------------------------------------------------------
 Center     Atomic      Atomic             Coordinates (Angstroms)
 Number     Number       Type             X           Y           Z
 ---------------------------------------------------------------------
      1          6           0        0.194815   -0.436708    0.249097
      2          6           0       -0.943570    1.390125   -0.016235
      3          6           0       -1.212097   -0.259022   -0.339879
      4          8           0        1.199943   -0.464230   -0.490196
      5          8           0        2.531638    0.176500    0.295355
      6          8           0       -2.187488   -0.746108    0.307007
      7          1           0        3.205521   -0.299987   -0.228034
      8          1           0        0.285066   -0.462203    1.335902
      9          1           0       -0.117393    1.829741   -0.580315
     10          1           0       -1.179640   -0.319722   -1.447198
     11          1           0       -1.903883    1.755949   -0.388909
     12          1           0       -0.877299    1.600553    1.053325
 ---------------------------------------------------------------------
                    Distance matrix (angstroms):
                    1          2          3          4          5
     1  C    0.000000
     2  C    2.168788   0.000000
     3  C    1.535535   1.701922   0.000000
     4  O    1.248036   2.873660   2.425416   0.000000
     5  O    2.416383   3.694191   3.822140   1.673630   0.000000
     6  O    2.403008   2.493052   1.267715   3.491372   4.808481
     7  H    3.051344   4.485119   4.419223   2.029297   0.977289
     8  H    1.090844   2.601719   2.256329   2.042459   2.556905
     9  H    2.433555   1.092711   2.370468   2.646847   3.243049
    10  H    2.186373   2.242089   1.109456   2.568881   4.129929
    11  H    3.101504   1.093121   2.130981   3.817485   4.757807
    12  H    2.438574   1.092076   2.347579   3.310698   3.771379
                    6          7          8          9         10
     6  O    0.000000
     7  H    5.437816   0.000000
     8  H    2.693093   3.316816   0.000000
     9  H    3.421642   3.962525   3.014443   0.000000
    10  H    2.067558   4.551526   3.148223   2.549519   0.000000
    11  H    2.612474   5.509879   3.561835   1.798229   2.439859
    12  H    2.789337   4.682238   2.384513   1.816250   3.167251
                   11         12
    11  H    0.000000
    12  H    1.777094   0.000000
 Symmetry turned off by external request.
 Stoichiometry    C3H6O3
 Framework group  C1[X(C3H6O3)]
 Deg. of freedom    30
 Full point group                 C1      NOp   1
 Rotational constants (GHZ):           8.0595741           1.9308301           1.7099059
 Standard basis: 6-31+G(d) (6D, 7F)
   126 basis functions,   216 primitive gaussians,   126 cartesian basis functions
    24 alpha electrons       24 beta electrons
       nuclear repulsion energy       235.8258780398 Hartrees.
 NAtoms=   12 NActive=   12 NUniq=   12 SFac= 1.00D+00 NAtFMM=   60 NAOKFM=F Big=F
 Integral buffers will be    131072 words long.
 Raffenetti 2 integral format.
 Two-electron integral symmetry is turned off.
 One-electron integrals computed using PRISM.
 NBasis=   126 RedAO= T EigKep=  8.45D-05  NBF=   126
 NBsUse=   126 1.00D-06 EigRej= -1.00D+00 NBFU=   126
 ExpMin= 4.38D-02 ExpMax= 5.48D+03 ExpMxC= 8.25D+02 IAcc=3 IRadAn=         5 AccDes= 0.00D+00
 Harris functional with IExCor=  402 and IRadAn=       5 diagonalized for initial guess.
 HarFok:  IExCor=  402 AccDes= 0.00D+00 IRadAn=         5 IDoV= 1 UseB2=F ITyADJ=14
 ICtDFT=  3500011 ScaDFX=  1.000000  1.000000  1.000000  1.000000
 FoFCou: FMM=F IPFlag=           0 FMFlag=      100000 FMFlg1=           0
         NFxFlg=           0 DoJE=T BraDBF=F KetDBF=T FulRan=T
         wScrn=  0.000000 ICntrl=       500 IOpCl=  0 I1Cent=   200000004 NGrid=           0
         NMat0=    1 NMatS0=      1 NMatT0=    0 NMatD0=    1 NMtDS0=    0 NMtDT0=    0
 Symmetry not used in FoFCou.
 Keep R1 ints in memory in canonical form, NReq=47237243.
 Requested convergence on RMS density matrix=1.00D-08 within 128 cycles.
 Requested convergence on MAX density matrix=1.00D-06.
 Requested convergence on             energy=1.00D-06.
 No special actions if energy rises.
 EnCoef did     4 forward-backward iterations
 EnCoef did     3 forward-backward iterations
 SCF Done:  E(RB3LYP) =  -343.401826968     A.U. after   17 cycles
            NFock= 17  Conv=0.40D-08     -V/T= 2.0091
 DoSCS=F DFT=T ScalE2(SS,OS)=  1.000000  1.000000
 Range of M.O.s used for correlation:     1   126
 NBasis=   126 NAE=    24 NBE=    24 NFC=     0 NFV=     0
 NROrb=    126 NOA=    24 NOB=    24 NVA=   102 NVB=   102

 **** Warning!!: The largest alpha MO coefficient is  0.35832567D+02


 **** Warning!!: The smallest alpha delta epsilon is  0.95919687D-01

 Symmetrizing basis deriv contribution to polar:
 IMax=3 JMax=2 DiffMx= 0.00D+00
 G2DrvN: will do    13 centers at a time, making    1 passes.
 Calling FoFCou, ICntrl=  3107 FMM=F I1Cent=   0 AccDes= 0.00D+00.
 End of G2Drv F.D. properties file   721 does not exist.
 End of G2Drv F.D. properties file   722 does not exist.
 End of G2Drv F.D. properties file   788 does not exist.
          IDoAtm=111111111111
          Differentiating once with respect to nuclear coordinates.
 Keep R1 ints in memory in canonical form, NReq=47193251.
          There are    39 degrees of freedom in the 1st order CPHF.  IDoFFX=6 NUNeed=     0.
     33 vectors produced by pass  0 Test12= 6.28D-15 2.56D-09 XBig12= 3.34D-01 2.66D-01.
 AX will form    33 AO Fock derivatives at one time.
     33 vectors produced by pass  1 Test12= 6.28D-15 2.56D-09 XBig12= 2.53D-01 1.31D-01.
     33 vectors produced by pass  2 Test12= 6.28D-15 2.56D-09 XBig12= 3.33D-03 1.51D-02.
     33 vectors produced by pass  3 Test12= 6.28D-15 2.56D-09 XBig12= 1.83D-05 7.51D-04.
     33 vectors produced by pass  4 Test12= 6.28D-15 2.56D-09 XBig12= 4.14D-08 3.45D-05.
     28 vectors produced by pass  5 Test12= 6.28D-15 2.56D-09 XBig12= 5.21D-11 1.33D-06.
      6 vectors produced by pass  6 Test12= 6.28D-15 2.56D-09 XBig12= 5.83D-14 3.97D-08.
 InvSVY:  IOpt=1 It=  1 EMax= 1.89D-15
 Solved reduced A of dimension   199 with    33 vectors.
 End of Minotr F.D. properties file   721 does not exist.
 End of Minotr F.D. properties file   722 does not exist.
 End of Minotr F.D. properties file   788 does not exist.

 **********************************************************************

            Population analysis using the SCF Density.

 **********************************************************************

 Alpha  occ. eigenvalues --  -19.30062 -19.22936 -19.11169 -10.33464 -10.28781
 Alpha  occ. eigenvalues --  -10.23288  -1.16404  -1.00885  -0.99737  -0.78388
 Alpha  occ. eigenvalues --   -0.68699  -0.62185  -0.56785  -0.52873  -0.50992
 Alpha  occ. eigenvalues --   -0.45951  -0.45116  -0.42907  -0.41205  -0.40055
 Alpha  occ. eigenvalues --   -0.38777  -0.33464  -0.24845  -0.24121
 Alpha virt. eigenvalues --   -0.14529  -0.07802   0.00064   0.01738   0.01879
 Alpha virt. eigenvalues --    0.03735   0.06260   0.06621   0.07029   0.07909
 Alpha virt. eigenvalues --    0.08926   0.10671   0.11620   0.13382   0.13990
 Alpha virt. eigenvalues --    0.14780   0.16580   0.18382   0.18762   0.20799
 Alpha virt. eigenvalues --    0.21623   0.23303   0.23751   0.25107   0.25661
 Alpha virt. eigenvalues --    0.27096   0.27823   0.29472   0.29847   0.31492
 Alpha virt. eigenvalues --    0.31762   0.32944   0.36197   0.37461   0.40958
 Alpha virt. eigenvalues --    0.44632   0.62448   0.64375   0.67434   0.67898
 Alpha virt. eigenvalues --    0.72674   0.74687   0.76119   0.80572   0.87482
 Alpha virt. eigenvalues --    0.92907   0.94644   0.96476   0.98211   1.04875
 Alpha virt. eigenvalues --    1.08164   1.08401   1.11148   1.13301   1.14061
 Alpha virt. eigenvalues --    1.18629   1.23683   1.24440   1.26380   1.29317
 Alpha virt. eigenvalues --    1.32286   1.35261   1.36660   1.42699   1.45999
 Alpha virt. eigenvalues --    1.51869   1.54663   1.61376   1.62598   1.64278
 Alpha virt. eigenvalues --    1.68179   1.73250   1.75330   1.77616   1.80830
 Alpha virt. eigenvalues --    1.83843   1.91123   1.93918   2.00507   2.04638
 Alpha virt. eigenvalues --    2.06968   2.13450   2.18930   2.23316   2.24770
 Alpha virt. eigenvalues --    2.31998   2.35086   2.44919   2.45567   2.53790
 Alpha virt. eigenvalues --    2.69513   2.77427   2.83440   2.87414   3.03535
 Alpha virt. eigenvalues --    3.08618   3.94177   4.17102   4.26206   4.31199
 Alpha virt. eigenvalues --    4.39126   4.49855
          Condensed to atoms (all electrons):
               1          2          3          4          5          6
     1  C    5.736768   0.047944  -0.273139   0.202274   0.063943  -0.168098
     2  C    0.047944   5.883634  -0.095068  -0.020493  -0.023066  -0.159040
     3  C   -0.273139  -0.095068   5.655114   0.029055  -0.028222   0.495305
     4  O    0.202274  -0.020493   0.029055   8.043283  -0.147473   0.002918
     5  O    0.063943  -0.023066  -0.028222  -0.147473   8.494578  -0.001940
     6  O   -0.168098  -0.159040   0.495305   0.002918  -0.001940   8.341005
     7  H    0.002360  -0.001727   0.003888   0.008304   0.167703   0.000015
     8  H    0.382849  -0.018410  -0.039812  -0.048265   0.004447  -0.000850
     9  H   -0.017770   0.342849  -0.019415  -0.001261   0.006132   0.007639
    10  H   -0.140439  -0.068182   0.459431   0.011418   0.000302  -0.051661
    11  H    0.017157   0.375349  -0.046413   0.000416   0.000320  -0.008302
    12  H    0.008591   0.370445  -0.043844  -0.001000   0.001038   0.001601
               7          8          9         10         11         12
     1  C    0.002360   0.382849  -0.017770  -0.140439   0.017157   0.008591
     2  C   -0.001727  -0.018410   0.342849  -0.068182   0.375349   0.370445
     3  C    0.003888  -0.039812  -0.019415   0.459431  -0.046413  -0.043844
     4  O    0.008304  -0.048265  -0.001261   0.011418   0.000416  -0.001000
     5  O    0.167703   0.004447   0.006132   0.000302   0.000320   0.001038
     6  O    0.000015  -0.000850   0.007639  -0.051661  -0.008302   0.001601
     7  H    0.358991   0.000124  -0.000046   0.000010  -0.000000  -0.000002
     8  H    0.000124   0.455539   0.001629   0.002882   0.000190   0.000445
     9  H   -0.000046   0.001629   0.484343   0.003485  -0.024558  -0.023319
    10  H    0.000010   0.002882   0.003485   0.586951  -0.007026   0.002824
    11  H   -0.000000   0.000190  -0.024558  -0.007026   0.452613  -0.020865
    12  H   -0.000002   0.000445  -0.023319   0.002824  -0.020865   0.456029
 Mulliken charges:
               1
     1  C    0.137560
     2  C   -0.634237
     3  C   -0.096879
     4  O   -0.079176
     5  O   -0.537763
     6  O   -0.458592
     7  H    0.460381
     8  H    0.259232
     9  H    0.240291
    10  H    0.200005
    11  H    0.261119
    12  H    0.248057
 Sum of Mulliken charges =  -0.00000
 Mulliken charges with hydrogens summed into heavy atoms:
               1
     1  C    0.396792
     2  C    0.115231
     3  C    0.103127
     4  O   -0.079176
     5  O   -0.077382
     6  O   -0.458592
 APT charges:
               1
     1  C   -0.082224
     2  C   -1.221121
     3  C   -0.462711
     4  O    0.036219
     5  O   -0.875127
     6  O   -0.458945
     7  H    0.782787
     8  H    0.471556
     9  H    0.354236
    10  H    0.423961
    11  H    0.607728
    12  H    0.423640
 Sum of APT charges =  -0.00000
 APT charges with hydrogens summed into heavy atoms:
               1
     1  C    0.389332
     2  C    0.164483
     3  C   -0.038750
     4  O    0.036219
     5  O   -0.092340
     6  O   -0.458945
 Electronic spatial extent (au):  <R**2>=            693.7961
 Charge=              0.0000 electrons
 Dipole moment (field-independent basis, Debye):
    X=              3.5262    Y=              1.3129    Z=             -1.0396  Tot=              3.9036
 Quadrupole moment (field-independent basis, Debye-Ang):
   XX=            -42.2388   YY=            -36.3416   ZZ=            -35.4063
   XY=             -8.4517   XZ=              0.6264   YZ=              0.2947
 Traceless Quadrupole moment (field-independent basis, Debye-Ang):
   XX=             -4.2432   YY=              1.6539   ZZ=              2.5893
   XY=             -8.4517   XZ=              0.6264   YZ=              0.2947
 Octapole moment (field-independent basis, Debye-Ang**2):
  XXX=             60.0467  YYY=             -0.8453  ZZZ=              0.7276  XYY=              4.4427
  XXY=              3.0397  XXZ=            -15.6437  XZZ=              2.3693  YZZ=             -0.6723
  YYZ=             -0.7130  XYZ=             -1.2814
 Hexadecapole moment (field-independent basis, Debye-Ang**3):
 XXXX=           -554.5501 YYYY=           -174.8390 ZZZZ=            -76.4731 XXXY=            -56.6763
 XXXZ=            -16.7533 YYYX=             -7.3108 YYYZ=             -0.2229 ZZZX=             -0.3505
 ZZZY=              1.6567 XXYY=           -135.6242 XXZZ=           -118.0929 YYZZ=            -40.9486
 XXYZ=              4.2172 YYXZ=              0.6535 ZZXY=             -0.8690
 N-N= 2.358258780398D+02 E-N=-1.275688826176D+03  KE= 3.402894216116D+02
  Exact polarizability:   0.000   0.000   0.000   0.000   0.000   0.000
 Approx polarizability: 384.897  17.894  75.575  -4.651  -0.262  66.797
 Calling FoFJK, ICntrl=    100127 FMM=F ISym2X=0 I1Cent= 0 IOpClX= 0 NMat=1 NMatS=1 NMatT=0.
 -------------------------------------------------------------------
 Center     Atomic                   Forces (Hartrees/Bohr)
 Number     Number              X              Y              Z
 -------------------------------------------------------------------
      1        6          -0.000003622   -0.000002253   -0.000004498
      2        6          -0.000005466    0.000004297    0.000000153
      3        6          -0.000001453   -0.000000090    0.000000711
      4        8          -0.000004804    0.000001229    0.000000393
      5        8           0.000001930   -0.000000193    0.000000085
      6        8           0.000002280   -0.000000777   -0.000002262
      7        1          -0.000000180   -0.000000427   -0.000000794
      8        1          -0.000001382    0.000000614   -0.000000344
      9        1           0.000003144    0.000002202    0.000004196
     10        1           0.000000955   -0.000003335    0.000001978
     11        1           0.000000192   -0.000002917    0.000000287
     12        1           0.000008405    0.000001649    0.000000096
 -------------------------------------------------------------------
 Cartesian Forces:  Max     0.000008405 RMS     0.000002700
 IRC-IRC-IRC-IRC-IRC-IRC-IRC-IRC-IRC-IRC-IRC-IRC-IRC-IRC-IRC-IRC-IRC-IRC
          ******** Start new reaction path calculation ********
 Supplied step size of   0.1500 bohr.
    Integration on MW PES will use step size of   0.3978 sqrt(amu)*bohr.
 Point Number:   0          Path Number:   1
 Calculating another point on the path.
 IRC-IRC-IRC-IRC-IRC-IRC-IRC-IRC-IRC-IRC-IRC-IRC-IRC-IRC-IRC-IRC-IRC-IRC
                          Input orientation:                          
 ---------------------------------------------------------------------
 Center     Atomic      Atomic             Coordinates (Angstroms)
 Number     Number       Type             X           Y           Z
 ---------------------------------------------------------------------
      1          6           0        0.176900   -0.374375    0.248002
      2          6           0       -0.921883    1.441693   -0.009772
      3          6           0       -1.210123   -0.241196   -0.343260
      4          8           0        1.201446   -0.415347   -0.488188
      5          8           0        2.498328    0.221790    0.282179
      6          8           0       -2.195293   -0.702201    0.300942
      7          1           0        3.176724   -0.262456   -0.228453
      8          1           0        0.268310   -0.408668    1.333602
      9          1           0       -0.099527    1.890258   -0.571751
     10          1           0       -1.182673   -0.271259   -1.451987
     11          1           0       -1.888043    1.775754   -0.396822
     12          1           0       -0.872881    1.656222    1.059343
 ---------------------------------------------------------------------
                    Distance matrix (angstroms):
                    1          2          3          4          5
     1  C    0.000000
     2  C    2.138194   0.000000
     3  C    1.513657   1.739659   0.000000
     4  O    1.262280   2.861120   2.422188   0.000000
     5  O    2.397000   3.642972   3.789213   1.637472   0.000000
     6  O    2.395323   2.512847   1.264153   3.498978   4.783743
     7  H    3.039487   4.444155   4.388400   1.998139   0.977476
     8  H    1.089981   2.577799   2.241802   2.046877   2.544788
     9  H    2.424246   1.092382   2.414275   2.648647   3.203410
    10  H    2.179228   2.254373   1.109474   2.575596   4.098805
    11  H    3.050056   1.093101   2.128505   3.788696   4.702776
    12  H    2.425621   1.091527   2.383531   3.314979   3.745215
                    6          7          8          9         10
     6  O    0.000000
     7  H    5.415921   0.000000
     8  H    2.687358   3.304582   0.000000
     9  H    3.445965   3.935206   3.008444   0.000000
    10  H    2.069752   4.527853   3.143841   2.572970   0.000000
    11  H    2.592593   5.462098   3.523624   1.800694   2.408564
    12  H    2.808221   4.662515   2.375143   1.820252   3.180870
                   11         12
    11  H    0.000000
    12  H    1.779117   0.000000
 Symmetry turned off by external request.
 Stoichiometry    C3H6O3
 Framework group  C1[X(C3H6O3)]
 Deg. of freedom    30
 Full point group                 C1      NOp   1
 Rotational constants (GHZ):           8.0670897           1.9537505           1.7259675
 Standard basis: 6-31+G(d) (6D, 7F)
   126 basis functions,   216 primitive gaussians,   126 cartesian basis functions
    24 alpha electrons       24 beta electrons
       nuclear repulsion energy       236.5286900012 Hartrees.
 NAtoms=   12 NActive=   12 NUniq=   12 SFac= 1.00D+00 NAtFMM=   60 NAOKFM=F Big=F
 Integral buffers will be    131072 words long.
 Raffenetti 2 integral format.
 Two-electron integral symmetry is turned off.
 One-electron integrals computed using PRISM.
 NBasis=   126 RedAO= T EigKep=  8.11D-05  NBF=   126
 NBsUse=   126 1.00D-06 EigRej= -1.00D+00 NBFU=   126
 Initial guess from the checkpoint file:  "/scratch/bell/zhao922/YARP/paper-example/KHP-network/pp_0/IRC-folder/Gau-37443.chk"
 B after Tr=    -0.011531    0.085452   -0.004992
         Rot=    1.000000   -0.000035    0.000063    0.000155 Ang=  -0.02 deg.
 ExpMin= 4.38D-02 ExpMax= 5.48D+03 ExpMxC= 8.25D+02 IAcc=3 IRadAn=         5 AccDes= 0.00D+00
 Harris functional with IExCor=  402 and IRadAn=       5 diagonalized for initial guess.
 HarFok:  IExCor=  402 AccDes= 0.00D+00 IRadAn=         5 IDoV= 1 UseB2=F ITyADJ=14
 ICtDFT=  3500011 ScaDFX=  1.000000  1.000000  1.000000  1.000000
 FoFCou: FMM=F IPFlag=           0 FMFlag=      100000 FMFlg1=           0
         NFxFlg=           0 DoJE=T BraDBF=F KetDBF=T FulRan=T
         wScrn=  0.000000 ICntrl=       500 IOpCl=  0 I1Cent=   200000004 NGrid=           0
         NMat0=    1 NMatS0=      1 NMatT0=    0 NMatD0=    1 NMtDS0=    0 NMtDT0=    0
 Symmetry not used in FoFCou.
 Keep R1 ints in memory in canonical form, NReq=47237243.
 Requested convergence on RMS density matrix=1.00D-08 within 128 cycles.
 Requested convergence on MAX density matrix=1.00D-06.
 Requested convergence on             energy=1.00D-06.
 No special actions if energy rises.
 SCF Done:  E(RB3LYP) =  -343.402131378     A.U. after   13 cycles
            NFock= 13  Conv=0.80D-08     -V/T= 2.0092
 DoSCS=F DFT=T ScalE2(SS,OS)=  1.000000  1.000000
 Range of M.O.s used for correlation:     1   126
 NBasis=   126 NAE=    24 NBE=    24 NFC=     0 NFV=     0
 NROrb=    126 NOA=    24 NOB=    24 NVA=   102 NVB=   102

 **** Warning!!: The largest alpha MO coefficient is  0.35552820D+02

 Symmetrizing basis deriv contribution to polar:
 IMax=3 JMax=2 DiffMx= 0.00D+00
 G2DrvN: will do    13 centers at a time, making    1 passes.
 Calling FoFCou, ICntrl=  3107 FMM=F I1Cent=   0 AccDes= 0.00D+00.
 End of G2Drv F.D. properties file   721 does not exist.
 End of G2Drv F.D. properties file   722 does not exist.
 End of G2Drv F.D. properties file   788 does not exist.
          IDoAtm=111111111111
          Differentiating once with respect to nuclear coordinates.
 Keep R1 ints in memory in canonical form, NReq=47193251.
          There are    39 degrees of freedom in the 1st order CPHF.  IDoFFX=6 NUNeed=     0.
     33 vectors produced by pass  0 Test12= 6.28D-15 2.56D-09 XBig12= 3.11D-01 2.66D-01.
 AX will form    33 AO Fock derivatives at one time.
     33 vectors produced by pass  1 Test12= 6.28D-15 2.56D-09 XBig12= 1.87D-01 1.08D-01.
     33 vectors produced by pass  2 Test12= 6.28D-15 2.56D-09 XBig12= 2.72D-03 1.50D-02.
     33 vectors produced by pass  3 Test12= 6.28D-15 2.56D-09 XBig12= 1.57D-05 7.75D-04.
     33 vectors produced by pass  4 Test12= 6.28D-15 2.56D-09 XBig12= 3.57D-08 3.11D-05.
     29 vectors produced by pass  5 Test12= 6.28D-15 2.56D-09 XBig12= 4.62D-11 1.12D-06.
      5 vectors produced by pass  6 Test12= 6.28D-15 2.56D-09 XBig12= 5.07D-14 2.83D-08.
 InvSVY:  IOpt=1 It=  1 EMax= 1.55D-15
 Solved reduced A of dimension   199 with    33 vectors.
 End of Minotr F.D. properties file   721 does not exist.
 End of Minotr F.D. properties file   722 does not exist.
 End of Minotr F.D. properties file   788 does not exist.
 Calling FoFJK, ICntrl=    100127 FMM=F ISym2X=0 I1Cent= 0 IOpClX= 0 NMat=1 NMatS=1 NMatT=0.
 -------------------------------------------------------------------
 Center     Atomic                   Forces (Hartrees/Bohr)
 Number     Number              X              Y              Z
 -------------------------------------------------------------------
      1        6          -0.001420546    0.002099151    0.000885671
      2        6           0.002407224    0.000997905    0.000923176
      3        6          -0.000578847   -0.003243791   -0.000515117
      4        8           0.001539565    0.000429959   -0.000071973
      5        8          -0.002652285   -0.000316341   -0.001184573
      6        8           0.000263911    0.000019629   -0.000542244
      7        1          -0.000144022    0.000066611    0.000144287
      8        1          -0.000053607   -0.000054000   -0.000011091
      9        1           0.000083426    0.000268410    0.000123993
     10        1           0.000002418   -0.000005314    0.000222420
     11        1           0.000494164   -0.000438511    0.000058402
     12        1           0.000058600    0.000176292   -0.000032949
 -------------------------------------------------------------------
 Cartesian Forces:  Max     0.003243791 RMS     0.001028858
 IRC-IRC-IRC-IRC-IRC-IRC-IRC-IRC-IRC-IRC-IRC-IRC-IRC-IRC-IRC-IRC-IRC-IRC
 Pt  1 Step number   1 out of a maximum of 100
 Modified Bulirsch-Stoer Extrapolation Cycles:
    EPS =    0.000010000000000
      PEZero:  N= 2 I= 1 D=  1.04D-03 Err=  9.13D-03
      PEZero:  N= 3 I= 2 D=  1.04D-03 Err=  1.08D-03
      PEZero:  N= 3 I= 1 D=  2.07D-03 Err=  7.51D-03
      PEZero:  N= 4 I= 3 D=  5.18D-04 Err=  8.07D-04
      PEZero:  N= 4 I= 2 D=  1.55D-03 Err=  1.28D-06
      PEZero:  N= 4 I= 1 D=  2.59D-03 Err=  6.48D-04
 Maximum DWI energy   std dev =  0.000009329 at pt    63
 Maximum DWI gradient std dev =  0.143396427 at pt    53
 CORRECTOR INTEGRATION CONVERGENCE:
   Recorrection delta-x convergence threshold:    0.010000
   Delta-x Convergence NOT Met
 IRC-IRC-IRC-IRC-IRC-IRC-IRC-IRC-IRC-IRC-IRC-IRC-IRC-IRC-IRC-IRC-IRC-IRC
                          Input orientation:                          
 ---------------------------------------------------------------------
 Center     Atomic      Atomic             Coordinates (Angstroms)
 Number     Number       Type             X           Y           Z
 ---------------------------------------------------------------------
      1          6           0        0.176629   -0.373388    0.248037
      2          6           0       -0.922117    1.442551   -0.009614
      3          6           0       -1.211485   -0.242379   -0.343794
      4          8           0        1.201771   -0.415240   -0.488595
      5          8           0        2.499695    0.221242    0.282632
      6          8           0       -2.195408   -0.702313    0.301179
      7          1           0        3.178444   -0.261902   -0.228328
      8          1           0        0.268064   -0.409673    1.333520
      9          1           0       -0.101041    1.892820   -0.571948
     10          1           0       -1.184052   -0.271901   -1.452023
     11          1           0       -1.888603    1.773451   -0.396922
     12          1           0       -0.873707    1.657935    1.059188
 ---------------------------------------------------------------------
                    Distance matrix (angstroms):
                    1          2          3          4          5
     1  C    0.000000
     2  C    2.138052   0.000000
     3  C    1.514691   1.741953   0.000000
     4  O    1.263049   2.862117   2.423769   0.000000
     5  O    2.398211   3.644969   3.792125   1.638446   0.000000
     6  O    2.395323   2.513624   1.263184   3.499568   4.785111
     7  H    3.041422   4.446077   4.391491   1.999622   0.977348
     8  H    1.089931   2.579007   2.242863   2.047423   2.546094
     9  H    2.425939   1.092304   2.417481   2.651681   3.207539
    10  H    2.179898   2.255770   1.108961   2.576993   4.101489
    11  H    3.047962   1.092518   2.127176   3.788031   4.704073
    12  H    2.426407   1.091362   2.386136   3.316820   3.747929
                    6          7          8          9         10
     6  O    0.000000
     7  H    5.417806   0.000000
     8  H    2.687016   3.306285   0.000000
     9  H    3.447237   3.939026   3.011399   0.000000
    10  H    2.069254   4.530883   3.144340   2.575551   0.000000
    11  H    2.590537   5.463154   3.523020   1.800073   2.406884
    12  H    2.809313   4.665126   2.377794   1.820107   3.182257
                   11         12
    11  H    0.000000
    12  H    1.778655   0.000000
 Symmetry turned off by external request.
 Stoichiometry    C3H6O3
 Framework group  C1[X(C3H6O3)]
 Deg. of freedom    30
 Full point group                 C1      NOp   1
 Rotational constants (GHZ):           8.0605618           1.9521804           1.7246451
 Standard basis: 6-31+G(d) (6D, 7F)
   126 basis functions,   216 primitive gaussians,   126 cartesian basis functions
    24 alpha electrons       24 beta electrons
       nuclear repulsion energy       236.4536903050 Hartrees.
 NAtoms=   12 NActive=   12 NUniq=   12 SFac= 1.00D+00 NAtFMM=   60 NAOKFM=F Big=F
 Integral buffers will be    131072 words long.
 Raffenetti 2 integral format.
 Two-electron integral symmetry is turned off.
 One-electron integrals computed using PRISM.
 NBasis=   126 RedAO= T EigKep=  8.14D-05  NBF=   126
 NBsUse=   126 1.00D-06 EigRej= -1.00D+00 NBFU=   126
 Initial guess from the checkpoint file:  "/scratch/bell/zhao922/YARP/paper-example/KHP-network/pp_0/IRC-folder/Gau-37443.chk"
 B after Tr=    -0.000052    0.000018   -0.000007
         Rot=    1.000000    0.000007   -0.000002   -0.000014 Ang=   0.00 deg.
 ExpMin= 4.38D-02 ExpMax= 5.48D+03 ExpMxC= 8.25D+02 IAcc=3 IRadAn=         5 AccDes= 0.00D+00
 Harris functional with IExCor=  402 and IRadAn=       5 diagonalized for initial guess.
 HarFok:  IExCor=  402 AccDes= 0.00D+00 IRadAn=         5 IDoV= 1 UseB2=F ITyADJ=14
 ICtDFT=  3500011 ScaDFX=  1.000000  1.000000  1.000000  1.000000
 FoFCou: FMM=F IPFlag=           0 FMFlag=      100000 FMFlg1=           0
         NFxFlg=           0 DoJE=T BraDBF=F KetDBF=T FulRan=T
         wScrn=  0.000000 ICntrl=       500 IOpCl=  0 I1Cent=   200000004 NGrid=           0
         NMat0=    1 NMatS0=      1 NMatT0=    0 NMatD0=    1 NMtDS0=    0 NMtDT0=    0
 Symmetry not used in FoFCou.
 Keep R1 ints in memory in canonical form, NReq=47237243.
 Requested convergence on RMS density matrix=1.00D-08 within 128 cycles.
 Requested convergence on MAX density matrix=1.00D-06.
 Requested convergence on             energy=1.00D-06.
 No special actions if energy rises.
 SCF Done:  E(RB3LYP) =  -343.402138764     A.U. after   11 cycles
            NFock= 11  Conv=0.49D-08     -V/T= 2.0092
 DoSCS=F DFT=T ScalE2(SS,OS)=  1.000000  1.000000
 Range of M.O.s used for correlation:     1   126
 NBasis=   126 NAE=    24 NBE=    24 NFC=     0 NFV=     0
 NROrb=    126 NOA=    24 NOB=    24 NVA=   102 NVB=   102

 **** Warning!!: The largest alpha MO coefficient is  0.35434016D+02

 Symmetrizing basis deriv contribution to polar:
 IMax=3 JMax=2 DiffMx= 0.00D+00
 Calling FoFJK, ICntrl=      2127 FMM=F ISym2X=0 I1Cent= 0 IOpClX= 0 NMat=1 NMatS=1 NMatT=0.
 -------------------------------------------------------------------
 Center     Atomic                   Forces (Hartrees/Bohr)
 Number     Number              X              Y              Z
 -------------------------------------------------------------------
      1        6          -0.001241479    0.002076002    0.000140853
      2        6           0.002739057    0.000898517    0.000970178
      3        6           0.000442290   -0.003106616   -0.000221608
      4        8           0.001152985    0.000551465    0.000487715
      5        8          -0.002992742   -0.000230716   -0.001173174
      6        8          -0.000254857   -0.000251815   -0.000318031
      7        1          -0.000146862   -0.000052628    0.000019111
      8        1          -0.000096585    0.000055214   -0.000001784
      9        1           0.000166035    0.000191277    0.000090947
     10        1          -0.000009789    0.000008732   -0.000019916
     11        1           0.000173808   -0.000268202   -0.000045193
     12        1           0.000068138    0.000128769    0.000070902
 -------------------------------------------------------------------
 Cartesian Forces:  Max     0.003106616 RMS     0.001023951
 IRC-IRC-IRC-IRC-IRC-IRC-IRC-IRC-IRC-IRC-IRC-IRC-IRC-IRC-IRC-IRC-IRC-IRC
 Error in corrector energy =           0.0000002459
 Magnitude of corrector gradient =     0.0061387167
 Magnitude of analytic gradient =      0.0061437073
 Magnitude of difference =             0.0000821243
 Angle between gradients (degrees)=    0.7648
 Pt  1 Step number   2 out of a maximum of 100
 Modified Bulirsch-Stoer Extrapolation Cycles:
    EPS =    0.000010000000000
      PEZero:  N= 2 I= 1 D=  1.04D-03 Err=  1.27D-02
      PEZero:  N= 3 I= 2 D=  1.04D-03 Err=  1.15D-03
      PEZero:  N= 3 I= 1 D=  2.07D-03 Err=  1.10D-02
      PEZero:  N= 4 I= 3 D=  5.18D-04 Err=  7.85D-04
      PEZero:  N= 4 I= 2 D=  1.55D-03 Err=  1.07D-04
      PEZero:  N= 4 I= 1 D=  2.59D-03 Err=  8.20D-04
      PEZero:  N= 5 I= 4 D=  5.18D-04 Err=  5.20D-04
      PEZero:  N= 5 I= 3 D=  1.04D-03 Err=  5.26D-06
      PEZero:  N= 5 I= 2 D=  2.07D-03 Err=  4.82D-05
 Maximum DWI energy   std dev =  0.000008673 at pt    39
 Maximum DWI gradient std dev =  0.301599857 at pt     4
 CORRECTOR INTEGRATION CONVERGENCE:
   Recorrection delta-x convergence threshold:    0.010000
   Delta-x Convergence Met
 Point Number:   1          Path Number:   1
   CHANGE IN THE REACTION COORDINATE =    0.39655
   NET REACTION COORDINATE UP TO THIS POINT =    0.39655
  # OF POINTS ALONG THE PATH =   1
  # OF STEPS =   2

 Calculating another point on the path.
 IRC-IRC-IRC-IRC-IRC-IRC-IRC-IRC-IRC-IRC-IRC-IRC-IRC-IRC-IRC-IRC-IRC-IRC
                          Input orientation:                          
 ---------------------------------------------------------------------
 Center     Atomic      Atomic             Coordinates (Angstroms)
 Number     Number       Type             X           Y           Z
 ---------------------------------------------------------------------
      1          6           0        0.164105   -0.351914    0.249000
      2          6           0       -0.895027    1.451661   -0.000067
      3          6           0       -1.207132   -0.273471   -0.346057
      4          8           0        1.210283   -0.410803   -0.484859
      5          8           0        2.477874    0.218968    0.274129
      6          8           0       -2.197303   -0.704638    0.299019
      7          1           0        3.160877   -0.268844   -0.226827
      8          1           0        0.256055   -0.401607    1.333084
      9          1           0       -0.081262    1.915583   -0.561321
     10          1           0       -1.185716   -0.271035   -1.454596
     11          1           0       -1.868665    1.742184   -0.402547
     12          1           0       -0.865813    1.673113    1.067617
 ---------------------------------------------------------------------
                    Distance matrix (angstroms):
                    1          2          3          4          5
     1  C    0.000000
     2  C    2.106342   0.000000
     3  C    1.496842   1.786953   0.000000
     4  O    1.279260   2.852390   2.425288   0.000000
     5  O    2.383288   3.601552   3.769137   1.606069   0.000000
     6  O    2.388129   2.536730   1.257961   3.508909   4.765600
     7  H    3.035450   4.411566   4.369638   1.972701   0.977451
     8  H    1.089110   2.556733   2.230885   2.053181   2.538302
     9  H    2.420407   1.091991   2.471008   2.661955   3.182083
    10  H    2.175039   2.273288   1.108748   2.588578   4.080500
    11  H    2.990303   1.092870   2.122189   3.757931   4.655156
    12  H    2.414870   1.090800   2.429849   3.326118   3.731542
                    6          7          8          9         10
     6  O    0.000000
     7  H    5.401529   0.000000
     8  H    2.679567   3.299839   0.000000
     9  H    3.476115   3.923655   3.011963   0.000000
    10  H    2.070383   4.516668   3.141163   2.607500   0.000000
    11  H    2.566542   5.419539   3.481765   1.802800   2.371978
    12  H    2.831485   4.654139   2.373504   1.824213   3.200564
                   11         12
    11  H    0.000000
    12  H    1.780973   0.000000
 Symmetry turned off by external request.
 Stoichiometry    C3H6O3
 Framework group  C1[X(C3H6O3)]
 Deg. of freedom    30
 Full point group                 C1      NOp   1
 Rotational constants (GHZ):           8.0446608           1.9697183           1.7359291
 Standard basis: 6-31+G(d) (6D, 7F)
   126 basis functions,   216 primitive gaussians,   126 cartesian basis functions
    24 alpha electrons       24 beta electrons
       nuclear repulsion energy       236.9239630068 Hartrees.
 NAtoms=   12 NActive=   12 NUniq=   12 SFac= 1.00D+00 NAtFMM=   60 NAOKFM=F Big=F
 Integral buffers will be    131072 words long.
 Raffenetti 2 integral format.
 Two-electron integral symmetry is turned off.
 One-electron integrals computed using PRISM.
 NBasis=   126 RedAO= T EigKep=  7.87D-05  NBF=   126
 NBsUse=   126 1.00D-06 EigRej= -1.00D+00 NBFU=   126
 Initial guess from the checkpoint file:  "/scratch/bell/zhao922/YARP/paper-example/KHP-network/pp_0/IRC-folder/Gau-37443.chk"
 B after Tr=     0.000305    0.000168    0.000240
         Rot=    1.000000    0.000016    0.000055    0.000115 Ang=   0.01 deg.
 ExpMin= 4.38D-02 ExpMax= 5.48D+03 ExpMxC= 8.25D+02 IAcc=3 IRadAn=         5 AccDes= 0.00D+00
 Harris functional with IExCor=  402 and IRadAn=       5 diagonalized for initial guess.
 HarFok:  IExCor=  402 AccDes= 0.00D+00 IRadAn=         5 IDoV= 1 UseB2=F ITyADJ=14
 ICtDFT=  3500011 ScaDFX=  1.000000  1.000000  1.000000  1.000000
 FoFCou: FMM=F IPFlag=           0 FMFlag=      100000 FMFlg1=           0
         NFxFlg=           0 DoJE=T BraDBF=F KetDBF=T FulRan=T
         wScrn=  0.000000 ICntrl=       500 IOpCl=  0 I1Cent=   200000004 NGrid=           0
         NMat0=    1 NMatS0=      1 NMatT0=    0 NMatD0=    1 NMtDS0=    0 NMtDT0=    0
 Symmetry not used in FoFCou.
 Keep R1 ints in memory in canonical form, NReq=47237243.
 Requested convergence on RMS density matrix=1.00D-08 within 128 cycles.
 Requested convergence on MAX density matrix=1.00D-06.
 Requested convergence on             energy=1.00D-06.
 No special actions if energy rises.
 SCF Done:  E(RB3LYP) =  -343.403378372     A.U. after   13 cycles
            NFock= 13  Conv=0.49D-08     -V/T= 2.0092
 DoSCS=F DFT=T ScalE2(SS,OS)=  1.000000  1.000000
 Range of M.O.s used for correlation:     1   126
 NBasis=   126 NAE=    24 NBE=    24 NFC=     0 NFV=     0
 NROrb=    126 NOA=    24 NOB=    24 NVA=   102 NVB=   102

 **** Warning!!: The largest alpha MO coefficient is  0.34232459D+02

 Symmetrizing basis deriv contribution to polar:
 IMax=3 JMax=2 DiffMx= 0.00D+00
 G2DrvN: will do    13 centers at a time, making    1 passes.
 Calling FoFCou, ICntrl=  3107 FMM=F I1Cent=   0 AccDes= 0.00D+00.
 End of G2Drv F.D. properties file   721 does not exist.
 End of G2Drv F.D. properties file   722 does not exist.
 End of G2Drv F.D. properties file   788 does not exist.
          IDoAtm=111111111111
          Differentiating once with respect to nuclear coordinates.
 Keep R1 ints in memory in canonical form, NReq=47193244.
          There are    39 degrees of freedom in the 1st order CPHF.  IDoFFX=6 NUNeed=     0.
     33 vectors produced by pass  0 Test12= 6.28D-15 2.56D-09 XBig12= 2.84D-01 2.87D-01.
 AX will form    33 AO Fock derivatives at one time.
     33 vectors produced by pass  1 Test12= 6.28D-15 2.56D-09 XBig12= 1.34D-01 1.03D-01.
     33 vectors produced by pass  2 Test12= 6.28D-15 2.56D-09 XBig12= 2.14D-03 1.36D-02.
     33 vectors produced by pass  3 Test12= 6.28D-15 2.56D-09 XBig12= 1.28D-05 7.60D-04.
     33 vectors produced by pass  4 Test12= 6.28D-15 2.56D-09 XBig12= 2.86D-08 2.38D-05.
     29 vectors produced by pass  5 Test12= 6.28D-15 2.56D-09 XBig12= 3.68D-11 1.10D-06.
      6 vectors produced by pass  6 Test12= 6.28D-15 2.56D-09 XBig12= 3.86D-14 2.70D-08.
 InvSVY:  IOpt=1 It=  1 EMax= 1.33D-15
 Solved reduced A of dimension   200 with    33 vectors.
 End of Minotr F.D. properties file   721 does not exist.
 End of Minotr F.D. properties file   722 does not exist.
 End of Minotr F.D. properties file   788 does not exist.
 Calling FoFJK, ICntrl=    100127 FMM=F ISym2X=0 I1Cent= 0 IOpClX= 0 NMat=1 NMatS=1 NMatT=0.
 -------------------------------------------------------------------
 Center     Atomic                   Forces (Hartrees/Bohr)
 Number     Number              X              Y              Z
 -------------------------------------------------------------------
      1        6          -0.003686350    0.006167605    0.000891996
      2        6           0.006622384    0.002555102    0.002419376
      3        6           0.000094285   -0.008508601   -0.000969983
      4        8           0.003122710    0.001312306    0.000534409
      5        8          -0.006729947   -0.000892955   -0.002653099
      6        8          -0.000226759   -0.000629065   -0.000912695
      7        1          -0.000335255   -0.000058486    0.000119165
      8        1          -0.000197829    0.000011028   -0.000046167
      9        1           0.000242756    0.000623480    0.000296470
     10        1          -0.000089827   -0.000074008    0.000183532
     11        1           0.001052868   -0.000947806    0.000090225
     12        1           0.000130963    0.000441401    0.000046773
 -------------------------------------------------------------------
 Cartesian Forces:  Max     0.008508601 RMS     0.002641334
 IRC-IRC-IRC-IRC-IRC-IRC-IRC-IRC-IRC-IRC-IRC-IRC-IRC-IRC-IRC-IRC-IRC-IRC
 Pt  2 Step number   1 out of a maximum of 100
 Modified Bulirsch-Stoer Extrapolation Cycles:
    EPS =    0.000010000000000
      PEZero:  N= 2 I= 1 D=  2.07D-03 Err=  1.70D-04
      PEZero:  N= 3 I= 2 D=  2.07D-03 Err=  1.13D-04
      PEZero:  N= 3 I= 1 D=  4.14D-03 Err=  4.96D-07
 Maximum DWI energy   std dev =  0.000013108 at pt    68
 Maximum DWI gradient std dev =  0.055702264 at pt    10
 CORRECTOR INTEGRATION CONVERGENCE:
   Recorrection delta-x convergence threshold:    0.010000
   Delta-x Convergence NOT Met
 IRC-IRC-IRC-IRC-IRC-IRC-IRC-IRC-IRC-IRC-IRC-IRC-IRC-IRC-IRC-IRC-IRC-IRC
                          Input orientation:                          
 ---------------------------------------------------------------------
 Center     Atomic      Atomic             Coordinates (Angstroms)
 Number     Number       Type             X           Y           Z
 ---------------------------------------------------------------------
      1          6           0        0.163894   -0.351505    0.249174
      2          6           0       -0.895185    1.451832   -0.000012
      3          6           0       -1.207737   -0.273852   -0.346264
      4          8           0        1.210311   -0.410909   -0.485203
      5          8           0        2.478556    0.218886    0.274398
      6          8           0       -2.197249   -0.704572    0.299061
      7          1           0        3.161758   -0.268410   -0.226635
      8          1           0        0.256272   -0.402897    1.333079
      9          1           0       -0.082343    1.916899   -0.561338
     10          1           0       -1.186347   -0.271571   -1.454364
     11          1           0       -1.868191    1.740787   -0.402496
     12          1           0       -0.866374    1.674133    1.067330
 ---------------------------------------------------------------------
                    Distance matrix (angstroms):
                    1          2          3          4          5
     1  C    0.000000
     2  C    2.106126   0.000000
     3  C    1.497314   1.787614   0.000000
     4  O    1.279776   2.852776   2.425911   0.000000
     5  O    2.384038   3.602441   3.770513   1.606885   0.000000
     6  O    2.387916   2.536710   1.257418   3.508956   4.766186
     7  H    3.036525   4.412412   4.371136   1.973654   0.977373
     8  H    1.089047   2.557930   2.231629   2.053388   2.538891
     9  H    2.421408   1.091827   2.472277   2.663727   3.184321
    10  H    2.175221   2.273771   1.108309   2.588949   4.081749
    11  H    2.988600   1.091892   2.120879   3.756835   4.654951
    12  H    2.415376   1.090627   2.430930   3.327218   3.732967
                    6          7          8          9         10
     6  O    0.000000
     7  H    5.402365   0.000000
     8  H    2.679546   3.300401   0.000000
     9  H    3.476381   3.925786   3.014121   0.000000
    10  H    2.069762   4.518113   3.141375   2.608778   0.000000
    11  H    2.565199   5.419242   3.481514   1.801527   2.370848
    12  H    2.831908   4.655499   2.375923   1.823787   3.201107
                   11         12
    11  H    0.000000
    12  H    1.780019   0.000000
 Symmetry turned off by external request.
 Stoichiometry    C3H6O3
 Framework group  C1[X(C3H6O3)]
 Deg. of freedom    30
 Full point group                 C1      NOp   1
 Rotational constants (GHZ):           8.0422412           1.9690501           1.7354092
 Standard basis: 6-31+G(d) (6D, 7F)
   126 basis functions,   216 primitive gaussians,   126 cartesian basis functions
    24 alpha electrons       24 beta electrons
       nuclear repulsion energy       236.8941997303 Hartrees.
 NAtoms=   12 NActive=   12 NUniq=   12 SFac= 1.00D+00 NAtFMM=   60 NAOKFM=F Big=F
 Integral buffers will be    131072 words long.
 Raffenetti 2 integral format.
 Two-electron integral symmetry is turned off.
 One-electron integrals computed using PRISM.
 NBasis=   126 RedAO= T EigKep=  7.88D-05  NBF=   126
 NBsUse=   126 1.00D-06 EigRej= -1.00D+00 NBFU=   126
 Initial guess from the checkpoint file:  "/scratch/bell/zhao922/YARP/paper-example/KHP-network/pp_0/IRC-folder/Gau-37443.chk"
 B after Tr=    -0.000015   -0.000009    0.000002
         Rot=    1.000000    0.000005   -0.000001   -0.000010 Ang=   0.00 deg.
 ExpMin= 4.38D-02 ExpMax= 5.48D+03 ExpMxC= 8.25D+02 IAcc=3 IRadAn=         5 AccDes= 0.00D+00
 Harris functional with IExCor=  402 and IRadAn=       5 diagonalized for initial guess.
 HarFok:  IExCor=  402 AccDes= 0.00D+00 IRadAn=         5 IDoV= 1 UseB2=F ITyADJ=14
 ICtDFT=  3500011 ScaDFX=  1.000000  1.000000  1.000000  1.000000
 FoFCou: FMM=F IPFlag=           0 FMFlag=      100000 FMFlg1=           0
         NFxFlg=           0 DoJE=T BraDBF=F KetDBF=T FulRan=T
         wScrn=  0.000000 ICntrl=       500 IOpCl=  0 I1Cent=   200000004 NGrid=           0
         NMat0=    1 NMatS0=      1 NMatT0=    0 NMatD0=    1 NMtDS0=    0 NMtDT0=    0
 Symmetry not used in FoFCou.
 Keep R1 ints in memory in canonical form, NReq=47237243.
 Requested convergence on RMS density matrix=1.00D-08 within 128 cycles.
 Requested convergence on MAX density matrix=1.00D-06.
 Requested convergence on             energy=1.00D-06.
 No special actions if energy rises.
 SCF Done:  E(RB3LYP) =  -343.403382749     A.U. after   10 cycles
            NFock= 10  Conv=0.49D-08     -V/T= 2.0092
 DoSCS=F DFT=T ScalE2(SS,OS)=  1.000000  1.000000
 Range of M.O.s used for correlation:     1   126
 NBasis=   126 NAE=    24 NBE=    24 NFC=     0 NFV=     0
 NROrb=    126 NOA=    24 NOB=    24 NVA=   102 NVB=   102

 **** Warning!!: The largest alpha MO coefficient is  0.34189465D+02

 Symmetrizing basis deriv contribution to polar:
 IMax=3 JMax=2 DiffMx= 0.00D+00
 Calling FoFJK, ICntrl=      2127 FMM=F ISym2X=0 I1Cent= 0 IOpClX= 0 NMat=1 NMatS=1 NMatT=0.
 -------------------------------------------------------------------
 Center     Atomic                   Forces (Hartrees/Bohr)
 Number     Number              X              Y              Z
 -------------------------------------------------------------------
      1        6          -0.003449104    0.006126607    0.000356069
      2        6           0.007137944    0.002485990    0.002598602
      3        6           0.000670599   -0.008538187   -0.000780495
      4        8           0.002880369    0.001433348    0.000936142
      5        8          -0.006932534   -0.000874870   -0.002675951
      6        8          -0.000634896   -0.000796331   -0.000710471
      7        1          -0.000327384   -0.000125049    0.000049907
      8        1          -0.000256822    0.000105423   -0.000011077
      9        1           0.000379924    0.000588307    0.000237986
     10        1          -0.000077381   -0.000029632   -0.000050335
     11        1           0.000466928   -0.000775696   -0.000124239
     12        1           0.000142356    0.000400090    0.000173860
 -------------------------------------------------------------------
 Cartesian Forces:  Max     0.008538187 RMS     0.002676862
 IRC-IRC-IRC-IRC-IRC-IRC-IRC-IRC-IRC-IRC-IRC-IRC-IRC-IRC-IRC-IRC-IRC-IRC
 Error in corrector energy =           0.0000000679
 Magnitude of corrector gradient =     0.0160629344
 Magnitude of analytic gradient =      0.0160611735
 Magnitude of difference =             0.0000419325
 Angle between gradients (degrees)=    0.1494
 Pt  2 Step number   2 out of a maximum of 100
 Modified Bulirsch-Stoer Extrapolation Cycles:
    EPS =    0.000010000000000
      PEZero:  N= 2 I= 1 D=  2.07D-03 Err=  1.54D-04
      PEZero:  N= 3 I= 2 D=  2.07D-03 Err=  1.02D-04
      PEZero:  N= 3 I= 1 D=  4.14D-03 Err=  6.76D-07
 Maximum DWI energy   std dev =  0.000012057 at pt    73
 Maximum DWI gradient std dev =  0.089149419 at pt    55
 CORRECTOR INTEGRATION CONVERGENCE:
   Recorrection delta-x convergence threshold:    0.010000
   Delta-x Convergence Met
 Point Number:   2          Path Number:   1
   CHANGE IN THE REACTION COORDINATE =    0.39728
   NET REACTION COORDINATE UP TO THIS POINT =    0.79383
  # OF POINTS ALONG THE PATH =   2
  # OF STEPS =   2

 Calculating another point on the path.
 IRC-IRC-IRC-IRC-IRC-IRC-IRC-IRC-IRC-IRC-IRC-IRC-IRC-IRC-IRC-IRC-IRC-IRC
                          Input orientation:                          
 ---------------------------------------------------------------------
 Center     Atomic      Atomic             Coordinates (Angstroms)
 Number     Number       Type             X           Y           Z
 ---------------------------------------------------------------------
      1          6           0        0.150753   -0.327615    0.250104
      2          6           0       -0.868332    1.461368    0.009817
      3          6           0       -1.205650   -0.306431   -0.349455
      4          8           0        1.218080   -0.406877   -0.482726
      5          8           0        2.460058    0.216242    0.267302
      6          8           0       -2.199205   -0.707082    0.297278
      7          1           0        3.147636   -0.274106   -0.224773
      8          1           0        0.244160   -0.397369    1.332261
      9          1           0       -0.065424    1.943693   -0.550666
     10          1           0       -1.190590   -0.273395   -1.456867
     11          1           0       -1.847519    1.705758   -0.408081
     12          1           0       -0.860197    1.692099    1.075245
 ---------------------------------------------------------------------
                    Distance matrix (angstroms):
                    1          2          3          4          5
     1  C    0.000000
     2  C    2.072855   0.000000
     3  C    1.483155   1.835203   0.000000
     4  O    1.297116   2.843598   2.429469   0.000000
     5  O    2.372544   3.562978   3.753797   1.579028   0.000000
     6  O    2.380866   2.560475   1.251373   3.518006   4.749963
     7  H    3.034745   4.381198   4.355191   1.951244   0.977417
     8  H    1.088418   2.537990   2.222248   2.059803   2.533941
     9  H    2.418016   1.091531   2.530545   2.679025   3.167209
    10  H    2.171611   2.294431   1.108007   2.601626   4.066907
    11  H    2.925902   1.092325   2.112898   3.723801   4.607604
    12  H    2.404604   1.090155   2.478553   3.339492   3.722233
                    6          7          8          9         10
     6  O    0.000000
     7  H    5.389685   0.000000
     8  H    2.671543   3.296925   0.000000
     9  H    3.506941   3.917728   3.020236   0.000000
    10  H    2.069399   4.509796   3.138967   2.646257   0.000000
    11  H    2.538309   5.376341   3.439049   1.803554   2.334214
    12  H    2.855563   4.649595   2.377296   1.827170   3.222408
                   11         12
    11  H    0.000000
    12  H    1.781922   0.000000
 Symmetry turned off by external request.
 Stoichiometry    C3H6O3
 Framework group  C1[X(C3H6O3)]
 Deg. of freedom    30
 Full point group                 C1      NOp   1
 Rotational constants (GHZ):           8.0135197           1.9835799           1.7440873
 Standard basis: 6-31+G(d) (6D, 7F)
   126 basis functions,   216 primitive gaussians,   126 cartesian basis functions
    24 alpha electrons       24 beta electrons
       nuclear repulsion energy       237.2345667197 Hartrees.
 NAtoms=   12 NActive=   12 NUniq=   12 SFac= 1.00D+00 NAtFMM=   60 NAOKFM=F Big=F
 Integral buffers will be    131072 words long.
 Raffenetti 2 integral format.
 Two-electron integral symmetry is turned off.
 One-electron integrals computed using PRISM.
 NBasis=   126 RedAO= T EigKep=  7.69D-05  NBF=   126
 NBsUse=   126 1.00D-06 EigRej= -1.00D+00 NBFU=   126
 Initial guess from the checkpoint file:  "/scratch/bell/zhao922/YARP/paper-example/KHP-network/pp_0/IRC-folder/Gau-37443.chk"
 B after Tr=     0.000245    0.000150    0.000233
         Rot=    1.000000    0.000037    0.000054    0.000086 Ang=   0.01 deg.
 ExpMin= 4.38D-02 ExpMax= 5.48D+03 ExpMxC= 8.25D+02 IAcc=3 IRadAn=         5 AccDes= 0.00D+00
 Harris functional with IExCor=  402 and IRadAn=       5 diagonalized for initial guess.
 HarFok:  IExCor=  402 AccDes= 0.00D+00 IRadAn=         5 IDoV= 1 UseB2=F ITyADJ=14
 ICtDFT=  3500011 ScaDFX=  1.000000  1.000000  1.000000  1.000000
 FoFCou: FMM=F IPFlag=           0 FMFlag=      100000 FMFlg1=           0
         NFxFlg=           0 DoJE=T BraDBF=F KetDBF=T FulRan=T
         wScrn=  0.000000 ICntrl=       500 IOpCl=  0 I1Cent=   200000004 NGrid=           0
         NMat0=    1 NMatS0=      1 NMatT0=    0 NMatD0=    1 NMtDS0=    0 NMtDT0=    0
 Symmetry not used in FoFCou.
 Keep R1 ints in memory in canonical form, NReq=47237243.
 Requested convergence on RMS density matrix=1.00D-08 within 128 cycles.
 Requested convergence on MAX density matrix=1.00D-06.
 Requested convergence on             energy=1.00D-06.
 No special actions if energy rises.
 SCF Done:  E(RB3LYP) =  -343.405945757     A.U. after   13 cycles
            NFock= 13  Conv=0.47D-08     -V/T= 2.0093
 DoSCS=F DFT=T ScalE2(SS,OS)=  1.000000  1.000000
 Range of M.O.s used for correlation:     1   126
 NBasis=   126 NAE=    24 NBE=    24 NFC=     0 NFV=     0
 NROrb=    126 NOA=    24 NOB=    24 NVA=   102 NVB=   102

 **** Warning!!: The largest alpha MO coefficient is  0.32232679D+02

 Symmetrizing basis deriv contribution to polar:
 IMax=3 JMax=2 DiffMx= 0.00D+00
 G2DrvN: will do    13 centers at a time, making    1 passes.
 Calling FoFCou, ICntrl=  3107 FMM=F I1Cent=   0 AccDes= 0.00D+00.
 End of G2Drv F.D. properties file   721 does not exist.
 End of G2Drv F.D. properties file   722 does not exist.
 End of G2Drv F.D. properties file   788 does not exist.
          IDoAtm=111111111111
          Differentiating once with respect to nuclear coordinates.
 Keep R1 ints in memory in canonical form, NReq=47193244.
          There are    39 degrees of freedom in the 1st order CPHF.  IDoFFX=6 NUNeed=     0.
     33 vectors produced by pass  0 Test12= 6.28D-15 2.56D-09 XBig12= 2.54D-01 2.74D-01.
 AX will form    33 AO Fock derivatives at one time.
     33 vectors produced by pass  1 Test12= 6.28D-15 2.56D-09 XBig12= 9.99D-02 9.87D-02.
     33 vectors produced by pass  2 Test12= 6.28D-15 2.56D-09 XBig12= 1.68D-03 1.07D-02.
     33 vectors produced by pass  3 Test12= 6.28D-15 2.56D-09 XBig12= 1.02D-05 6.93D-04.
     33 vectors produced by pass  4 Test12= 6.28D-15 2.56D-09 XBig12= 2.28D-08 2.30D-05.
     29 vectors produced by pass  5 Test12= 6.28D-15 2.56D-09 XBig12= 2.86D-11 9.23D-07.
      6 vectors produced by pass  6 Test12= 6.28D-15 2.56D-09 XBig12= 2.86D-14 2.10D-08.
 InvSVY:  IOpt=1 It=  1 EMax= 2.22D-15
 Solved reduced A of dimension   200 with    33 vectors.
 End of Minotr F.D. properties file   721 does not exist.
 End of Minotr F.D. properties file   722 does not exist.
 End of Minotr F.D. properties file   788 does not exist.
 Calling FoFJK, ICntrl=    100127 FMM=F ISym2X=0 I1Cent= 0 IOpClX= 0 NMat=1 NMatS=1 NMatT=0.
 -------------------------------------------------------------------
 Center     Atomic                   Forces (Hartrees/Bohr)
 Number     Number              X              Y              Z
 -------------------------------------------------------------------
      1        6          -0.006388018    0.012041885    0.000741619
      2        6           0.012264768    0.004310242    0.004536638
      3        6           0.000228491   -0.015389008   -0.001781517
      4        8           0.004473450    0.002253605    0.000968626
      5        8          -0.010628741   -0.001689873   -0.004059479
      6        8          -0.000960151   -0.001594518   -0.001227957
      7        1          -0.000538064   -0.000132898    0.000160845
      8        1          -0.000428931    0.000088376   -0.000107218
      9        1           0.000463502    0.001127182    0.000505264
     10        1          -0.000225500   -0.000262769    0.000062759
     11        1           0.001535979   -0.001560136    0.000042513
     12        1           0.000203214    0.000807912    0.000157907
 -------------------------------------------------------------------
 Cartesian Forces:  Max     0.015389008 RMS     0.004676229
 IRC-IRC-IRC-IRC-IRC-IRC-IRC-IRC-IRC-IRC-IRC-IRC-IRC-IRC-IRC-IRC-IRC-IRC
 Pt  3 Step number   1 out of a maximum of 100
 Modified Bulirsch-Stoer Extrapolation Cycles:
    EPS =    0.000010000000000
      PEZero:  N= 2 I= 1 D=  2.07D-03 Err=  1.43D-04
      PEZero:  N= 3 I= 2 D=  2.07D-03 Err=  9.52D-05
      PEZero:  N= 3 I= 1 D=  4.14D-03 Err=  2.03D-07
 Maximum DWI energy   std dev =  0.000006845 at pt    69
 Maximum DWI gradient std dev =  0.025682394 at pt    23
 CORRECTOR INTEGRATION CONVERGENCE:
   Recorrection delta-x convergence threshold:    0.010000
   Delta-x Convergence Met
 Point Number:   3          Path Number:   1
   CHANGE IN THE REACTION COORDINATE =    0.39744
   NET REACTION COORDINATE UP TO THIS POINT =    1.19127
  # OF POINTS ALONG THE PATH =   3
  # OF STEPS =   1

 Calculating another point on the path.
 IRC-IRC-IRC-IRC-IRC-IRC-IRC-IRC-IRC-IRC-IRC-IRC-IRC-IRC-IRC-IRC-IRC-IRC
                          Input orientation:                          
 ---------------------------------------------------------------------
 Center     Atomic      Atomic             Coordinates (Angstroms)
 Number     Number       Type             X           Y           Z
 ---------------------------------------------------------------------
      1          6           0        0.137235   -0.301280    0.251001
      2          6           0       -0.841265    1.469967    0.019892
      3          6           0       -1.205274   -0.339249   -0.353250
      4          8           0        1.224469   -0.403420   -0.481362
      5          8           0        2.444212    0.213666    0.261439
      6          8           0       -2.201088   -0.709842    0.295636
      7          1           0        3.136081   -0.278662   -0.222257
      8          1           0        0.232352   -0.394150    1.330820
      9          1           0       -0.050789    1.972761   -0.539459
     10          1           0       -1.196659   -0.279683   -1.459111
     11          1           0       -1.823537    1.668839   -0.413103
     12          1           0       -0.855249    1.712195    1.082234
 ---------------------------------------------------------------------
                    Distance matrix (angstroms):
                    1          2          3          4          5
     1  C    0.000000
     2  C    2.036711   0.000000
     3  C    1.472715   1.882817   0.000000
     4  O    1.314864   2.833389   2.433965   0.000000
     5  O    2.363772   3.525762   3.741965   1.555738   0.000000
     6  O    2.374167   2.583935   1.245005   3.525913   4.736333
     7  H    3.036044   4.351508   4.343753   1.933122   0.977257
     8  H    1.087972   2.519150   2.214921   2.066008   2.530877
     9  H    2.414838   1.091113   2.590926   2.697386   3.156087
    10  H    2.168922   2.318411   1.107498   2.614033   4.057046
    11  H    2.857801   1.091738   2.101962   3.686361   4.559190
    12  H    2.393753   1.089698   2.528152   3.353489   3.715607
                    6          7          8          9         10
     6  O    0.000000
     7  H    5.379545   0.000000
     8  H    2.663250   3.295000   0.000000
     9  H    3.538012   3.914801   3.029914   0.000000
    10  H    2.067137   4.505824   3.136701   2.689290   0.000000
    11  H    2.510574   5.331697   3.394682   1.803044   2.298662
    12  H    2.880327   4.647141   2.383560   1.828917   3.246933
                   11         12
    11  H    0.000000
    12  H    1.781991   0.000000
 Symmetry turned off by external request.
 Stoichiometry    C3H6O3
 Framework group  C1[X(C3H6O3)]
 Deg. of freedom    30
 Full point group                 C1      NOp   1
 Rotational constants (GHZ):           7.9798668           1.9961309           1.7511681
 Standard basis: 6-31+G(d) (6D, 7F)
   126 basis functions,   216 primitive gaussians,   126 cartesian basis functions
    24 alpha electrons       24 beta electrons
       nuclear repulsion energy       237.5049012649 Hartrees.
 NAtoms=   12 NActive=   12 NUniq=   12 SFac= 1.00D+00 NAtFMM=   60 NAOKFM=F Big=F
 Integral buffers will be    131072 words long.
 Raffenetti 2 integral format.
 Two-electron integral symmetry is turned off.
 One-electron integrals computed using PRISM.
 NBasis=   126 RedAO= T EigKep=  7.61D-05  NBF=   126
 NBsUse=   126 1.00D-06 EigRej= -1.00D+00 NBFU=   126
 Initial guess from the checkpoint file:  "/scratch/bell/zhao922/YARP/paper-example/KHP-network/pp_0/IRC-folder/Gau-37443.chk"
 B after Tr=     0.000262    0.000089    0.000246
         Rot=    1.000000    0.000065    0.000055    0.000069 Ang=   0.01 deg.
 ExpMin= 4.38D-02 ExpMax= 5.48D+03 ExpMxC= 8.25D+02 IAcc=3 IRadAn=         5 AccDes= 0.00D+00
 Harris functional with IExCor=  402 and IRadAn=       5 diagonalized for initial guess.
 HarFok:  IExCor=  402 AccDes= 0.00D+00 IRadAn=         5 IDoV= 1 UseB2=F ITyADJ=14
 ICtDFT=  3500011 ScaDFX=  1.000000  1.000000  1.000000  1.000000
 FoFCou: FMM=F IPFlag=           0 FMFlag=      100000 FMFlg1=           0
         NFxFlg=           0 DoJE=T BraDBF=F KetDBF=T FulRan=T
         wScrn=  0.000000 ICntrl=       500 IOpCl=  0 I1Cent=   200000004 NGrid=           0
         NMat0=    1 NMatS0=      1 NMatT0=    0 NMatD0=    1 NMtDS0=    0 NMtDT0=    0
 Symmetry not used in FoFCou.
 Keep R1 ints in memory in canonical form, NReq=47237243.
 Requested convergence on RMS density matrix=1.00D-08 within 128 cycles.
 Requested convergence on MAX density matrix=1.00D-06.
 Requested convergence on             energy=1.00D-06.
 No special actions if energy rises.
 SCF Done:  E(RB3LYP) =  -343.409997491     A.U. after   13 cycles
            NFock= 13  Conv=0.39D-08     -V/T= 2.0093
 DoSCS=F DFT=T ScalE2(SS,OS)=  1.000000  1.000000
 Range of M.O.s used for correlation:     1   126
 NBasis=   126 NAE=    24 NBE=    24 NFC=     0 NFV=     0
 NROrb=    126 NOA=    24 NOB=    24 NVA=   102 NVB=   102

 **** Warning!!: The largest alpha MO coefficient is  0.29651506D+02

 Symmetrizing basis deriv contribution to polar:
 IMax=3 JMax=2 DiffMx= 0.00D+00
 G2DrvN: will do    13 centers at a time, making    1 passes.
 Calling FoFCou, ICntrl=  3107 FMM=F I1Cent=   0 AccDes= 0.00D+00.
 End of G2Drv F.D. properties file   721 does not exist.
 End of G2Drv F.D. properties file   722 does not exist.
 End of G2Drv F.D. properties file   788 does not exist.
          IDoAtm=111111111111
          Differentiating once with respect to nuclear coordinates.
 Keep R1 ints in memory in canonical form, NReq=47193244.
          There are    39 degrees of freedom in the 1st order CPHF.  IDoFFX=6 NUNeed=     0.
     33 vectors produced by pass  0 Test12= 6.28D-15 2.56D-09 XBig12= 2.25D-01 2.42D-01.
 AX will form    33 AO Fock derivatives at one time.
     33 vectors produced by pass  1 Test12= 6.28D-15 2.56D-09 XBig12= 8.06D-02 8.94D-02.
     33 vectors produced by pass  2 Test12= 6.28D-15 2.56D-09 XBig12= 1.36D-03 8.91D-03.
     33 vectors produced by pass  3 Test12= 6.28D-15 2.56D-09 XBig12= 8.15D-06 6.25D-04.
     33 vectors produced by pass  4 Test12= 6.28D-15 2.56D-09 XBig12= 1.97D-08 1.92D-05.
     29 vectors produced by pass  5 Test12= 6.28D-15 2.56D-09 XBig12= 2.48D-11 7.33D-07.
      6 vectors produced by pass  6 Test12= 6.28D-15 2.56D-09 XBig12= 2.50D-14 2.48D-08.
 InvSVY:  IOpt=1 It=  1 EMax= 2.00D-15
 Solved reduced A of dimension   200 with    33 vectors.
 End of Minotr F.D. properties file   721 does not exist.
 End of Minotr F.D. properties file   722 does not exist.
 End of Minotr F.D. properties file   788 does not exist.
 Calling FoFJK, ICntrl=    100127 FMM=F ISym2X=0 I1Cent= 0 IOpClX= 0 NMat=1 NMatS=1 NMatT=0.
 -------------------------------------------------------------------
 Center     Atomic                   Forces (Hartrees/Bohr)
 Number     Number              X              Y              Z
 -------------------------------------------------------------------
      1        6          -0.009186982    0.018998684    0.000524209
      2        6           0.018441093    0.005396447    0.006850491
      3        6          -0.000226261   -0.022285715   -0.002799319
      4        8           0.004735787    0.002847909    0.000892694
      5        8          -0.013386482   -0.002214377   -0.004877028
      6        8          -0.001660129   -0.002785680   -0.001525421
      7        1          -0.000665631   -0.000181546    0.000228657
      8        1          -0.000666503    0.000144339   -0.000187755
      9        1           0.000688788    0.001652155    0.000736210
     10        1          -0.000394246   -0.000615467   -0.000067381
     11        1           0.002061892   -0.002157494   -0.000025290
     12        1           0.000258673    0.001200746    0.000249933
 -------------------------------------------------------------------
 Cartesian Forces:  Max     0.022285715 RMS     0.006737431
 IRC-IRC-IRC-IRC-IRC-IRC-IRC-IRC-IRC-IRC-IRC-IRC-IRC-IRC-IRC-IRC-IRC-IRC
 Pt  4 Step number   1 out of a maximum of 100
 Modified Bulirsch-Stoer Extrapolation Cycles:
    EPS =    0.000010000000000
      PEZero:  N= 2 I= 1 D=  2.07D-03 Err=  1.25D-04
      PEZero:  N= 3 I= 2 D=  2.07D-03 Err=  8.36D-05
      PEZero:  N= 3 I= 1 D=  4.14D-03 Err=  2.00D-07
 Maximum DWI energy   std dev =  0.000005533 at pt    25
 Maximum DWI gradient std dev =  0.016239343 at pt    12
 CORRECTOR INTEGRATION CONVERGENCE:
   Recorrection delta-x convergence threshold:    0.010000
   Delta-x Convergence Met
 Point Number:   4          Path Number:   1
   CHANGE IN THE REACTION COORDINATE =    0.39748
   NET REACTION COORDINATE UP TO THIS POINT =    1.58875
  # OF POINTS ALONG THE PATH =   4
  # OF STEPS =   1

 Calculating another point on the path.
 IRC-IRC-IRC-IRC-IRC-IRC-IRC-IRC-IRC-IRC-IRC-IRC-IRC-IRC-IRC-IRC-IRC-IRC
                          Input orientation:                          
 ---------------------------------------------------------------------
 Center     Atomic      Atomic             Coordinates (Angstroms)
 Number     Number       Type             X           Y           Z
 ---------------------------------------------------------------------
      1          6           0        0.123697   -0.272661    0.251421
      2          6           0       -0.813485    1.476975    0.030191
      3          6           0       -1.205975   -0.371598   -0.357429
      4          8           0        1.228861   -0.400527   -0.480695
      5          8           0        2.430532    0.211489    0.256650
      6          8           0       -2.203012   -0.713099    0.294109
      7          1           0        3.126146   -0.282603   -0.219244
      8          1           0        0.220369   -0.391187    1.328465
      9          1           0       -0.036677    2.001824   -0.527505
     10          1           0       -1.203809   -0.291026   -1.461735
     11          1           0       -1.796315    1.632725   -0.417635
     12          1           0       -0.850807    1.732866    1.088552
 ---------------------------------------------------------------------
                    Distance matrix (angstroms):
                    1          2          3          4          5
     1  C    0.000000
     2  C    1.997118   0.000000
     3  C    1.465781   1.929124   0.000000
     4  O    1.331814   2.820850   2.438125   0.000000
     5  O    2.357099   3.489468   3.733801   1.536964   0.000000
     6  O    2.368414   2.607080   1.239035   3.532106   4.725040
     7  H    3.039131   4.321923   4.335237   1.918842   0.976974
     8  H    1.087851   2.498880   2.208412   2.071281   2.529195
     9  H    2.409507   1.090835   2.651286   2.715707   3.147589
    10  H    2.167375   2.346065   1.107243   2.625321   4.051396
    11  H    2.786500   1.091220   2.090320   3.645515   4.510079
    12  H    2.381719   1.089496   2.577940   3.367332   3.711312
                    6          7          8          9         10
     6  O    0.000000
     7  H    5.371106   0.000000
     8  H    2.654486   3.294045   0.000000
     9  H    3.569155   3.913703   3.039276   0.000000
    10  H    2.063865   4.504704   3.134252   2.737178   0.000000
    11  H    2.484929   5.285685   3.348448   1.801287   2.267603
    12  H    2.905571   4.646353   2.390936   1.829423   3.274861
                   11         12
    11  H    0.000000
    12  H    1.781184   0.000000
 Symmetry turned off by external request.
 Stoichiometry    C3H6O3
 Framework group  C1[X(C3H6O3)]
 Deg. of freedom    30
 Full point group                 C1      NOp   1
 Rotational constants (GHZ):           7.9461502           2.0074455           1.7573100
 Standard basis: 6-31+G(d) (6D, 7F)
   126 basis functions,   216 primitive gaussians,   126 cartesian basis functions
    24 alpha electrons       24 beta electrons
       nuclear repulsion energy       237.7355792266 Hartrees.
 NAtoms=   12 NActive=   12 NUniq=   12 SFac= 1.00D+00 NAtFMM=   60 NAOKFM=F Big=F
 Integral buffers will be    131072 words long.
 Raffenetti 2 integral format.
 Two-electron integral symmetry is turned off.
 One-electron integrals computed using PRISM.
 NBasis=   126 RedAO= T EigKep=  7.66D-05  NBF=   126
 NBsUse=   126 1.00D-06 EigRej= -1.00D+00 NBFU=   126
 Initial guess from the checkpoint file:  "/scratch/bell/zhao922/YARP/paper-example/KHP-network/pp_0/IRC-folder/Gau-37443.chk"
 B after Tr=     0.000313    0.000025    0.000248
         Rot=    1.000000    0.000100    0.000060    0.000065 Ang=   0.02 deg.
 ExpMin= 4.38D-02 ExpMax= 5.48D+03 ExpMxC= 8.25D+02 IAcc=3 IRadAn=         5 AccDes= 0.00D+00
 Harris functional with IExCor=  402 and IRadAn=       5 diagonalized for initial guess.
 HarFok:  IExCor=  402 AccDes= 0.00D+00 IRadAn=         5 IDoV= 1 UseB2=F ITyADJ=14
 ICtDFT=  3500011 ScaDFX=  1.000000  1.000000  1.000000  1.000000
 FoFCou: FMM=F IPFlag=           0 FMFlag=      100000 FMFlg1=           0
         NFxFlg=           0 DoJE=T BraDBF=F KetDBF=T FulRan=T
         wScrn=  0.000000 ICntrl=       500 IOpCl=  0 I1Cent=   200000004 NGrid=           0
         NMat0=    1 NMatS0=      1 NMatT0=    0 NMatD0=    1 NMtDS0=    0 NMtDT0=    0
 Symmetry not used in FoFCou.
 Keep R1 ints in memory in canonical form, NReq=47237243.
 Requested convergence on RMS density matrix=1.00D-08 within 128 cycles.
 Requested convergence on MAX density matrix=1.00D-06.
 Requested convergence on             energy=1.00D-06.
 No special actions if energy rises.
 SCF Done:  E(RB3LYP) =  -343.415468669     A.U. after   12 cycles
            NFock= 12  Conv=0.82D-08     -V/T= 2.0093
 DoSCS=F DFT=T ScalE2(SS,OS)=  1.000000  1.000000
 Range of M.O.s used for correlation:     1   126
 NBasis=   126 NAE=    24 NBE=    24 NFC=     0 NFV=     0
 NROrb=    126 NOA=    24 NOB=    24 NVA=   102 NVB=   102

 **** Warning!!: The largest alpha MO coefficient is  0.30355444D+02

 Symmetrizing basis deriv contribution to polar:
 IMax=3 JMax=2 DiffMx= 0.00D+00
 G2DrvN: will do    13 centers at a time, making    1 passes.
 Calling FoFCou, ICntrl=  3107 FMM=F I1Cent=   0 AccDes= 0.00D+00.
 End of G2Drv F.D. properties file   721 does not exist.
 End of G2Drv F.D. properties file   722 does not exist.
 End of G2Drv F.D. properties file   788 does not exist.
          IDoAtm=111111111111
          Differentiating once with respect to nuclear coordinates.
 Keep R1 ints in memory in canonical form, NReq=47193244.
          There are    39 degrees of freedom in the 1st order CPHF.  IDoFFX=6 NUNeed=     0.
     33 vectors produced by pass  0 Test12= 6.28D-15 2.56D-09 XBig12= 2.01D-01 2.10D-01.
 AX will form    33 AO Fock derivatives at one time.
     33 vectors produced by pass  1 Test12= 6.28D-15 2.56D-09 XBig12= 7.07D-02 7.83D-02.
     33 vectors produced by pass  2 Test12= 6.28D-15 2.56D-09 XBig12= 1.17D-03 8.08D-03.
     33 vectors produced by pass  3 Test12= 6.28D-15 2.56D-09 XBig12= 6.66D-06 6.32D-04.
     33 vectors produced by pass  4 Test12= 6.28D-15 2.56D-09 XBig12= 1.72D-08 2.02D-05.
     29 vectors produced by pass  5 Test12= 6.28D-15 2.56D-09 XBig12= 2.23D-11 7.34D-07.
      5 vectors produced by pass  6 Test12= 6.28D-15 2.56D-09 XBig12= 2.20D-14 2.37D-08.
 InvSVY:  IOpt=1 It=  1 EMax= 2.33D-15
 Solved reduced A of dimension   199 with    33 vectors.
 End of Minotr F.D. properties file   721 does not exist.
 End of Minotr F.D. properties file   722 does not exist.
 End of Minotr F.D. properties file   788 does not exist.
 Calling FoFJK, ICntrl=    100127 FMM=F ISym2X=0 I1Cent= 0 IOpClX= 0 NMat=1 NMatS=1 NMatT=0.
 -------------------------------------------------------------------
 Center     Atomic                   Forces (Hartrees/Bohr)
 Number     Number              X              Y              Z
 -------------------------------------------------------------------
      1        6          -0.011724182    0.026126917    0.000155774
      2        6           0.024414423    0.005265888    0.008991768
      3        6          -0.001056494   -0.027838775   -0.003771368
      4        8           0.003709722    0.003066923    0.000504938
      5        8          -0.014756481   -0.002281598   -0.005046692
      6        8          -0.002249894   -0.004197696   -0.001777112
      7        1          -0.000721785   -0.000220884    0.000291660
[...]
      5        8          -0.002440895    0.004104709   -0.000574684
      6        8          -0.000102555    0.000335623   -0.000308754
      7        1           0.002391630   -0.003879691    0.000364482
      8        1           0.000007677    0.000049238   -0.000063626
      9        1          -0.000415852   -0.000217930   -0.000362402
     10        1          -0.000086866    0.000174028    0.000028349
     11        1          -0.000028571   -0.000056761    0.000408491
     12        1           0.000450247    0.000009454   -0.000259677
 -------------------------------------------------------------------
 Cartesian Forces:  Max     0.004104709 RMS     0.001126767
 IRC-IRC-IRC-IRC-IRC-IRC-IRC-IRC-IRC-IRC-IRC-IRC-IRC-IRC-IRC-IRC-IRC-IRC
 Error in corrector energy =          -0.0001340902
 Magnitude of corrector gradient =     0.0012008700
 Magnitude of analytic gradient =      0.0067606024
 Magnitude of difference =             0.0066330647
 Angle between gradients (degrees)=   78.8127
 Pt 27 Step number  98 out of a maximum of 100
 Modified Bulirsch-Stoer Extrapolation Cycles:
    EPS =    0.000010000000000
      PEZero:  N= 2 I= 1 D=  1.95D-03 Err=  1.17D-02
      PEZero:  N= 3 I= 2 D=  1.95D-03 Err=  2.05D-02
      PEZero:  N= 3 I= 1 D=  3.89D-03 Err=  1.91D-02
      PEZero:  N= 4 I= 3 D=  9.73D-04 Err=  3.07D-02
      PEZero:  N= 4 I= 2 D=  2.92D-03 Err=  2.05D-02
      PEZero:  N= 4 I= 1 D=  4.86D-03 Err=  1.31D-02
      PEZero:  N= 5 I= 4 D=  9.73D-04 Err=  5.02D-02
      PEZero:  N= 5 I= 3 D=  1.95D-03 Err=  4.45D-02
      PEZero:  N= 5 I= 2 D=  3.89D-03 Err=  3.43D-02
      PEZero:  N= 5 I= 1 D=  5.84D-03 Err=  2.99D-02
      PEZero:  N= 6 I= 5 D=  4.86D-04 Err=  1.31D-01
      PEZero:  N= 6 I= 4 D=  1.46D-03 Err=  1.25D-01
      PEZero:  N= 6 I= 3 D=  2.43D-03 Err=  1.23D-01
      PEZero:  N= 6 I= 2 D=  4.38D-03 Err=  9.79D-02
      PEZero:  N= 6 I= 1 D=  6.32D-03 Err=  8.35D-02
      PEZero:  N= 7 I= 6 D=  4.86D-04 Err=  1.22D-01
      PEZero:  N= 7 I= 5 D=  9.73D-04 Err=  5.24D-02
      PEZero:  N= 7 I= 4 D=  1.95D-03 Err=  3.07D-02
      PEZero:  N= 7 I= 3 D=  2.92D-03 Err=  5.10D-02
      PEZero:  N= 8 I= 7 D=  2.43D-04 Err=  3.99D-02
      PEZero:  N= 8 I= 6 D=  7.29D-04 Err=  6.92D-02
      PEZero:  N= 9 I= 8 D=  2.43D-04 Err=  2.86D-05
      PEZero:  N= 9 I= 7 D=  4.86D-04 Err=  3.99D-02
      PEZero:  N=10 I= 9 D=  1.22D-04 Err=  2.14D-05
      PEZero:  N=10 I= 8 D=  3.65D-04 Err=  2.20D-08
      PEZero:  N=10 I= 7 D=  6.08D-04 Err=  3.14D-02
 Maximum DWI energy   std dev =  0.000047384 at pt    -1
 Maximum DWI gradient std dev =  1.791348662 at pt   191
 CORRECTOR INTEGRATION CONVERGENCE:
   Recorrection delta-x convergence threshold:    0.010000
   Delta-x Convergence NOT Met
 IRC-IRC-IRC-IRC-IRC-IRC-IRC-IRC-IRC-IRC-IRC-IRC-IRC-IRC-IRC-IRC-IRC-IRC
                          Input orientation:                          
 ---------------------------------------------------------------------
 Center     Atomic      Atomic             Coordinates (Angstroms)
 Number     Number       Type             X           Y           Z
 ---------------------------------------------------------------------
      1          6           0       -0.039909    0.071224    0.264428
      2          6           0       -0.319399    1.573362    0.175829
      3          6           0       -1.188547   -0.747917   -0.316408
      4          8           0        1.101583   -0.323983   -0.506388
      5          8           0        2.274381    0.251366    0.138729
      6          8           0       -2.263406   -0.842700    0.234490
      7          1           0        2.805534   -0.569483    0.273155
      8          1           0        0.105290   -0.232831    1.309923
      9          1           0        0.522115    2.131470    0.594611
     10          1           0       -0.988713   -1.248727   -1.285903
     11          1           0       -0.460578    1.880390   -0.866016
     12          1           0       -1.223844    1.813221    0.743723
 ---------------------------------------------------------------------
                    Distance matrix (angstroms):
                    1          2          3          4          5
     1  C    0.000000
     2  C    1.530484   0.000000
     3  C    1.525691   2.527064   0.000000
     4  O    1.432952   2.466683   2.336774   0.000000
     5  O    2.324692   2.911485   3.632849   1.456934   0.000000
     6  O    2.404183   3.101606   1.211526   3.484412   4.668797
     7  H    2.916698   3.790312   4.041300   1.889816   0.986907
     8  H    1.098450   2.174595   2.141093   2.073619   2.512190
     9  H    2.160903   1.093165   3.470906   2.752676   2.610183
    10  H    2.246337   3.247896   1.109354   2.414981   3.863631
    11  H    2.174384   1.095280   2.782086   2.725608   3.338149
    12  H    2.160087   1.094557   2.772102   3.396767   3.878529
                    6          7          8          9         10
     6  O    0.000000
     7  H    5.076445   0.000000
     8  H    2.671932   2.911965   0.000000
     9  H    4.090783   3.551405   2.505061   0.000000
    10  H    2.025166   4.157925   2.994529   4.152670   0.000000
    11  H    3.446233   4.238759   3.085550   1.778246   3.201031
    12  H    2.897227   4.704742   2.504697   1.780980   3.681059
                   11         12
    11  H    0.000000
    12  H    1.782791   0.000000
 Symmetry turned off by external request.
 Stoichiometry    C3H6O3
 Framework group  C1[X(C3H6O3)]
 Deg. of freedom    30
 Full point group                 C1      NOp   1
 Rotational constants (GHZ):           7.3913568           2.1763809           1.8088452
 Standard basis: 6-31+G(d) (6D, 7F)
   126 basis functions,   216 primitive gaussians,   126 cartesian basis functions
    24 alpha electrons       24 beta electrons
       nuclear repulsion energy       240.5025217343 Hartrees.
 NAtoms=   12 NActive=   12 NUniq=   12 SFac= 1.00D+00 NAtFMM=   60 NAOKFM=F Big=F
 Integral buffers will be    131072 words long.
 Raffenetti 2 integral format.
 Two-electron integral symmetry is turned off.
 One-electron integrals computed using PRISM.
 NBasis=   126 RedAO= T EigKep=  9.71D-05  NBF=   126
 NBsUse=   126 1.00D-06 EigRej= -1.00D+00 NBFU=   126
 Initial guess from the checkpoint file:  "/scratch/bell/zhao922/YARP/paper-example/KHP-network/pp_0/IRC-folder/Gau-37443.chk"
 B after Tr=    -0.000263    0.000781   -0.000780
         Rot=    1.000000    0.000747    0.000178    0.000294 Ang=   0.09 deg.
 ExpMin= 4.38D-02 ExpMax= 5.48D+03 ExpMxC= 8.25D+02 IAcc=3 IRadAn=         5 AccDes= 0.00D+00
 Harris functional with IExCor=  402 and IRadAn=       5 diagonalized for initial guess.
 HarFok:  IExCor=  402 AccDes= 0.00D+00 IRadAn=         5 IDoV= 1 UseB2=F ITyADJ=14
 ICtDFT=  3500011 ScaDFX=  1.000000  1.000000  1.000000  1.000000
 FoFCou: FMM=F IPFlag=           0 FMFlag=      100000 FMFlg1=           0
         NFxFlg=           0 DoJE=T BraDBF=F KetDBF=T FulRan=T
         wScrn=  0.000000 ICntrl=       500 IOpCl=  0 I1Cent=   200000004 NGrid=           0
         NMat0=    1 NMatS0=      1 NMatT0=    0 NMatD0=    1 NMtDS0=    0 NMtDT0=    0
 Symmetry not used in FoFCou.
 Keep R1 ints in memory in canonical form, NReq=47237243.
 Requested convergence on RMS density matrix=1.00D-08 within 128 cycles.
 Requested convergence on MAX density matrix=1.00D-06.
 Requested convergence on             energy=1.00D-06.
 No special actions if energy rises.
 SCF Done:  E(RB3LYP) =  -343.498260889     A.U. after   11 cycles
            NFock= 11  Conv=0.61D-08     -V/T= 2.0092
 DoSCS=F DFT=T ScalE2(SS,OS)=  1.000000  1.000000
 Range of M.O.s used for correlation:     1   126
 NBasis=   126 NAE=    24 NBE=    24 NFC=     0 NFV=     0
 NROrb=    126 NOA=    24 NOB=    24 NVA=   102 NVB=   102

 **** Warning!!: The largest alpha MO coefficient is  0.33888990D+02

 Symmetrizing basis deriv contribution to polar:
 IMax=3 JMax=2 DiffMx= 0.00D+00
 Calling FoFJK, ICntrl=      2127 FMM=F ISym2X=0 I1Cent= 0 IOpClX= 0 NMat=1 NMatS=1 NMatT=0.
 -------------------------------------------------------------------
 Center     Atomic                   Forces (Hartrees/Bohr)
 Number     Number              X              Y              Z
 -------------------------------------------------------------------
      1        6           0.000011993   -0.000038655   -0.000080136
      2        6          -0.000067137   -0.000278489    0.000137904
      3        6           0.000136296   -0.000129831    0.000150070
      4        8          -0.000300323    0.000154408    0.000070838
      5        8           0.006028559   -0.009546824    0.001213308
      6        8          -0.000261353    0.000200895   -0.000098937
      7        1          -0.005559507    0.009464375   -0.001269103
      8        1          -0.000007966   -0.000007368    0.000041575
      9        1           0.000213038    0.000120957    0.000042897
     10        1           0.000029819   -0.000013252   -0.000140842
     11        1          -0.000066528    0.000023839   -0.000202986
     12        1          -0.000156891    0.000049944    0.000135412
 -------------------------------------------------------------------
 Cartesian Forces:  Max     0.009546824 RMS     0.002643816
 IRC-IRC-IRC-IRC-IRC-IRC-IRC-IRC-IRC-IRC-IRC-IRC-IRC-IRC-IRC-IRC-IRC-IRC
 Error in corrector energy =          -0.0001851253
 Magnitude of corrector gradient =     0.0010945341
 Magnitude of analytic gradient =      0.0158628961
 Magnitude of difference =             0.0161208302
 Angle between gradients (degrees)=  101.7167
 Pt 27 Step number  99 out of a maximum of 100
 Modified Bulirsch-Stoer Extrapolation Cycles:
    EPS =    0.000010000000000
      PEZero:  N= 2 I= 1 D=  1.95D-03 Err=  1.87D-02
      PEZero:  N= 3 I= 2 D=  1.95D-03 Err=  2.98D-02
      PEZero:  N= 3 I= 1 D=  3.89D-03 Err=  2.76D-02
      PEZero:  N= 4 I= 3 D=  9.73D-04 Err=  5.66D-02
      PEZero:  N= 4 I= 2 D=  2.92D-03 Err=  4.81D-02
      PEZero:  N= 4 I= 1 D=  4.86D-03 Err=  4.12D-02
      PEZero:  N= 5 I= 4 D=  9.73D-04 Err=  8.24D-02
      PEZero:  N= 5 I= 3 D=  1.95D-03 Err=  7.99D-02
      PEZero:  N= 5 I= 2 D=  3.89D-03 Err=  6.15D-02
      PEZero:  N= 5 I= 1 D=  5.84D-03 Err=  5.04D-02
      PEZero:  N= 6 I= 5 D=  4.86D-04 Err=  6.09D-02
      PEZero:  N= 6 I= 4 D=  1.46D-03 Err=  3.92D-02
      PEZero:  N= 6 I= 3 D=  2.43D-03 Err=  6.19D-02
      PEZero:  N= 7 I= 6 D=  4.86D-04 Err=  1.23D-02
      PEZero:  N= 7 I= 5 D=  9.73D-04 Err=  4.24D-02
      PEZero:  N= 8 I= 7 D=  2.43D-04 Err=  1.09D-04
      PEZero:  N= 8 I= 6 D=  7.29D-04 Err=  1.22D-02
      PEZero:  N= 9 I= 8 D=  2.43D-04 Err=  7.28D-05
      PEZero:  N= 9 I= 7 D=  4.86D-04 Err=  1.64D-07
      PEZero:  N= 9 I= 6 D=  9.73D-04 Err=  1.96D-02
 Maximum DWI energy   std dev =  0.000093247 at pt    -1
 Maximum DWI gradient std dev =  2.100870251 at pt   103
 CORRECTOR INTEGRATION CONVERGENCE:
   Recorrection delta-x convergence threshold:    0.010000
   Delta-x Convergence NOT Met
 IRC-IRC-IRC-IRC-IRC-IRC-IRC-IRC-IRC-IRC-IRC-IRC-IRC-IRC-IRC-IRC-IRC-IRC
                          Input orientation:                          
 ---------------------------------------------------------------------
 Center     Atomic      Atomic             Coordinates (Angstroms)
 Number     Number       Type             X           Y           Z
 ---------------------------------------------------------------------
      1          6           0       -0.039603    0.069957    0.264897
      2          6           0       -0.319859    1.571996    0.178502
      3          6           0       -1.187490   -0.750943   -0.314996
      4          8           0        1.101468   -0.324258   -0.506038
      5          8           0        2.272604    0.250465    0.144456
      6          8           0       -2.264426   -0.840522    0.232912
      7          1           0        2.825721   -0.542757    0.214393
      8          1           0        0.106451   -0.235465    1.310070
      9          1           0        0.516809    2.130520    0.609369
     10          1           0       -0.983477   -1.262076   -1.278705
     11          1           0       -0.450246    1.881918   -0.864817
     12          1           0       -1.231802    1.807528    0.738272
 ---------------------------------------------------------------------
                    Distance matrix (angstroms):
                    1          2          3          4          5
     1  C    0.000000
     2  C    1.530401   0.000000
     3  C    1.525713   2.528313   0.000000
     4  O    1.432407   2.466687   2.336212   0.000000
     5  O    2.322367   2.910064   3.631276   1.457741   0.000000
     6  O    2.404129   3.099120   1.211618   3.484511   4.667197
     7  H    2.930537   3.790533   4.053326   1.881438   0.969551
     8  H    1.098636   2.174649   2.140290   2.072726   2.507390
     9  H    2.161984   1.094353   3.473027   2.758967   2.614110
    10  H    2.246758   3.255120   1.109781   2.413195   3.862024
    11  H    2.174416   1.096161   2.788870   2.720984   3.330794
    12  H    2.159762   1.095653   2.767148   3.396611   3.880454
                    6          7          8          9         10
     6  O    0.000000
     7  H    5.098882   0.000000
     8  H    2.673466   2.947773   0.000000
     9  H    4.087062   3.554362   2.501452   0.000000
    10  H    2.025716   4.154124   2.990590   4.162378   0.000000
    11  H    3.450788   4.216124   3.085994   1.780512   3.215640
    12  H    2.886844   4.718239   2.508325   1.782857   3.681349
                   11         12
    11  H    0.000000
    12  H    1.785009   0.000000
 Symmetry turned off by external request.
 Stoichiometry    C3H6O3
 Framework group  C1[X(C3H6O3)]
 Deg. of freedom    30
 Full point group                 C1      NOp   1
 Rotational constants (GHZ):           7.4013021           2.1770734           1.8088249
 Standard basis: 6-31+G(d) (6D, 7F)
   126 basis functions,   216 primitive gaussians,   126 cartesian basis functions
    24 alpha electrons       24 beta electrons
       nuclear repulsion energy       240.5874632921 Hartrees.
 NAtoms=   12 NActive=   12 NUniq=   12 SFac= 1.00D+00 NAtFMM=   60 NAOKFM=F Big=F
 Integral buffers will be    131072 words long.
 Raffenetti 2 integral format.
 Two-electron integral symmetry is turned off.
 One-electron integrals computed using PRISM.
 NBasis=   126 RedAO= T EigKep=  9.70D-05  NBF=   126
 NBsUse=   126 1.00D-06 EigRej= -1.00D+00 NBFU=   126
 Initial guess from the checkpoint file:  "/scratch/bell/zhao922/YARP/paper-example/KHP-network/pp_0/IRC-folder/Gau-37443.chk"
 B after Tr=     0.000263   -0.000782    0.000779
         Rot=    1.000000   -0.000747   -0.000178   -0.000294 Ang=  -0.09 deg.
 ExpMin= 4.38D-02 ExpMax= 5.48D+03 ExpMxC= 8.25D+02 IAcc=3 IRadAn=         5 AccDes= 0.00D+00
 Harris functional with IExCor=  402 and IRadAn=       5 diagonalized for initial guess.
 HarFok:  IExCor=  402 AccDes= 0.00D+00 IRadAn=         5 IDoV= 1 UseB2=F ITyADJ=14
 ICtDFT=  3500011 ScaDFX=  1.000000  1.000000  1.000000  1.000000
 FoFCou: FMM=F IPFlag=           0 FMFlag=      100000 FMFlg1=           0
         NFxFlg=           0 DoJE=T BraDBF=F KetDBF=T FulRan=T
         wScrn=  0.000000 ICntrl=       500 IOpCl=  0 I1Cent=   200000004 NGrid=           0
         NMat0=    1 NMatS0=      1 NMatT0=    0 NMatD0=    1 NMtDS0=    0 NMtDT0=    0
 Symmetry not used in FoFCou.
 Keep R1 ints in memory in canonical form, NReq=47237243.
 Requested convergence on RMS density matrix=1.00D-08 within 128 cycles.
 Requested convergence on MAX density matrix=1.00D-06.
 Requested convergence on             energy=1.00D-06.
 No special actions if energy rises.
 SCF Done:  E(RB3LYP) =  -343.498357618     A.U. after   11 cycles
            NFock= 11  Conv=0.59D-08     -V/T= 2.0092
 DoSCS=F DFT=T ScalE2(SS,OS)=  1.000000  1.000000
 Range of M.O.s used for correlation:     1   126
 NBasis=   126 NAE=    24 NBE=    24 NFC=     0 NFV=     0
 NROrb=    126 NOA=    24 NOB=    24 NVA=   102 NVB=   102

 **** Warning!!: The largest alpha MO coefficient is  0.31943733D+02

 Symmetrizing basis deriv contribution to polar:
 IMax=3 JMax=2 DiffMx= 0.00D+00
 Calling FoFJK, ICntrl=      2127 FMM=F ISym2X=0 I1Cent= 0 IOpClX= 0 NMat=1 NMatS=1 NMatT=0.
 -------------------------------------------------------------------
 Center     Atomic                   Forces (Hartrees/Bohr)
 Number     Number              X              Y              Z
 -------------------------------------------------------------------
      1        6           0.000031996   -0.000167835    0.000115298
      2        6          -0.000126527    0.000239329    0.000342788
      3        6           0.000126613   -0.000517404    0.000155121
      4        8           0.000193102   -0.000072759    0.000154615
      5        8          -0.002440895    0.004104709   -0.000574684
      6        8          -0.000102555    0.000335623   -0.000308754
      7        1           0.002391630   -0.003879691    0.000364482
      8        1           0.000007677    0.000049238   -0.000063626
      9        1          -0.000415852   -0.000217930   -0.000362402
     10        1          -0.000086866    0.000174028    0.000028349
     11        1          -0.000028571   -0.000056761    0.000408491
     12        1           0.000450247    0.000009454   -0.000259677
 -------------------------------------------------------------------
 Cartesian Forces:  Max     0.004104709 RMS     0.001126767
 IRC-IRC-IRC-IRC-IRC-IRC-IRC-IRC-IRC-IRC-IRC-IRC-IRC-IRC-IRC-IRC-IRC-IRC
 Error in corrector energy =          -0.0001340902
 Magnitude of corrector gradient =     0.0012008700
 Magnitude of analytic gradient =      0.0067606024
 Magnitude of difference =             0.0066330647
 Angle between gradients (degrees)=   78.8127
 Pt 27 Step number 100 out of a maximum of 100
 Modified Bulirsch-Stoer Extrapolation Cycles:
    EPS =    0.000010000000000
      PEZero:  N= 2 I= 1 D=  1.95D-03 Err=  1.17D-02
      PEZero:  N= 3 I= 2 D=  1.95D-03 Err=  2.05D-02
      PEZero:  N= 3 I= 1 D=  3.89D-03 Err=  1.91D-02
      PEZero:  N= 4 I= 3 D=  9.73D-04 Err=  3.07D-02
      PEZero:  N= 4 I= 2 D=  2.92D-03 Err=  2.05D-02
      PEZero:  N= 4 I= 1 D=  4.86D-03 Err=  1.31D-02
      PEZero:  N= 5 I= 4 D=  9.73D-04 Err=  5.02D-02
      PEZero:  N= 5 I= 3 D=  1.95D-03 Err=  4.45D-02
      PEZero:  N= 5 I= 2 D=  3.89D-03 Err=  3.43D-02
      PEZero:  N= 5 I= 1 D=  5.84D-03 Err=  2.99D-02
      PEZero:  N= 6 I= 5 D=  4.86D-04 Err=  1.31D-01
      PEZero:  N= 6 I= 4 D=  1.46D-03 Err=  1.25D-01
      PEZero:  N= 6 I= 3 D=  2.43D-03 Err=  1.23D-01
      PEZero:  N= 6 I= 2 D=  4.38D-03 Err=  9.79D-02
      PEZero:  N= 6 I= 1 D=  6.32D-03 Err=  8.35D-02
      PEZero:  N= 7 I= 6 D=  4.86D-04 Err=  1.22D-01
      PEZero:  N= 7 I= 5 D=  9.73D-04 Err=  5.24D-02
      PEZero:  N= 7 I= 4 D=  1.95D-03 Err=  3.07D-02
      PEZero:  N= 7 I= 3 D=  2.92D-03 Err=  5.10D-02
      PEZero:  N= 8 I= 7 D=  2.43D-04 Err=  3.99D-02
      PEZero:  N= 8 I= 6 D=  7.29D-04 Err=  6.92D-02
      PEZero:  N= 9 I= 8 D=  2.43D-04 Err=  2.86D-05
      PEZero:  N= 9 I= 7 D=  4.86D-04 Err=  3.99D-02
      PEZero:  N=10 I= 9 D=  1.22D-04 Err=  2.14D-05
      PEZero:  N=10 I= 8 D=  3.65D-04 Err=  2.20D-08
      PEZero:  N=10 I= 7 D=  6.08D-04 Err=  3.14D-02
 Maximum DWI energy   std dev =  0.000047384 at pt    -1
 Maximum DWI gradient std dev =  1.791348659 at pt   191
 CORRECTOR INTEGRATION CONVERGENCE:
   Recorrection delta-x convergence threshold:    0.010000
   Delta-x Convergence NOT Met
 Maximum number of corrector steps exceded.
 Error termination via Lnk1e in /apps/cent7/gaussian/g16-B.01/g16-haswell/g16/l123.exe at Wed Dec 23 22:31:20 2020.
 Job cpu time:       0 days  3 hours 29 minutes 24.8 seconds.
 Elapsed time:       0 days  0 hours 14 minutes 21.6 seconds.
 File lengths (MBytes):  RWF=     28 Int=      0 D2E=      0 Chk=      4 Scr=      1
