 Entering Gaussian System, Link 0=g16
 Initial command:
 /apps/cent7/gaussian/g16-B.01/g16-haswell/g16/l1.exe "/scratch/bell/zhao922/YARP/paper-example/KHP-network/pp_0/IRC-folder/Gau-36408.inp" -scrdir="/scratch/bell/zhao922/YARP/paper-example/KHP-network/pp_0/IRC-folder/"
 Entering Link 1 = /apps/cent7/gaussian/g16-B.01/g16-haswell/g16/l1.exe PID=     36409.
  
 Copyright (c) 1988-2017, Gaussian, Inc.  All Rights Reserved.
  
 This is part of the Gaussian(R) 16 program.  It is based on
 the Gaussian(R) 09 system (copyright 2009, Gaussian, Inc.),
 the Gaussian(R) 03 system (copyright 2003, Gaussian, Inc.),
 the Gaussian(R) 98 system (copyright 1998, Gaussian, Inc.),
 the Gaussian(R) 94 system (copyright 1995, Gaussian, Inc.),
 the Gaussian 92(TM) system (copyright 1992, Gaussian, Inc.),
 the Gaussian 90(TM) system (copyright 1990, Gaussian, Inc.),
 the Gaussian 88(TM) system (copyright 1988, Gaussian, Inc.),
 the Gaussian 86(TM) system (copyright 1986, Carnegie Mellon
 University), and the Gaussian 82(TM) system (copyright 1983,
 Carnegie Mellon University). Gaussian is a federally registered
 trademark of Gaussian, Inc.
  
 This software contains proprietary and confidential information,
 including trade secrets, belonging to Gaussian, Inc.
  
 This software is provided under written license and may be
 used, copied, transmitted, or stored only in accord with that
 written license.
  
 The following legend is applicable only to US Government
 contracts under FAR:
  
                    RESTRICTED RIGHTS LEGEND
  
 Use, reproduction and disclosure by the US Government is
 subject to restrictions as set forth in subparagraphs (a)
 and (c) of the Commercial Computer Software - Restricted
 Rights clause in FAR 52.227-19.
  
 Gaussian, Inc.
 340 Quinnipiac St., Bldg. 40, Wallingford CT 06492
  
  
 ---------------------------------------------------------------
 Warning -- This program may not be used in any manner that
 competes with the business of Gaussian, Inc. or will provide
 assistance to any competitor of Gaussian, Inc.  The licensee
 of this program is prohibited from giving any competitor of
 Gaussian, Inc. access to this program.  By using this program,
 the user acknowledges that Gaussian, Inc. is engaged in the
 business of creating and licensing software in the field of
 computational chemistry and represents and warrants to the
 licensee that it is not a competitor of Gaussian, Inc. and that
 it will not use this program in any manner prohibited above.
 ---------------------------------------------------------------
  

 Cite this work as:
 Gaussian 16, Revision B.01,
 M. J. Frisch, G. W. Trucks, H. B. Schlegel, G. E. Scuseria, 
 M. A. Robb, J. R. Cheeseman, G. Scalmani, V. Barone, 
 G. A. Petersson, H. Nakatsuji, X. Li, M. Caricato, A. V. Marenich, 
 J. Bloino, B. G. Janesko, R. Gomperts, B. Mennucci, H. P. Hratchian, 
 J. V. Ortiz, A. F. Izmaylov, J. L. Sonnenberg, D. Williams-Young, 
 F. Ding, F. Lipparini, F. Egidi, J. Goings, B. Peng, A. Petrone, 
 T. Henderson, D. Ranasinghe, V. G. Zakrzewski, J. Gao, N. Rega, 
 G. Zheng, W. Liang, M. Hada, M. Ehara, K. Toyota, R. Fukuda, 
 J. Hasegawa, M. Ishida, T. Nakajima, Y. Honda, O. Kitao, H. Nakai, 
 T. Vreven, K. Throssell, J. A. Montgomery, Jr., J. E. Peralta, 
 F. Ogliaro, M. J. Bearpark, J. J. Heyd, E. N. Brothers, K. N. Kudin, 
 V. N. Staroverov, T. A. Keith, R. Kobayashi, J. Normand, 
 K. Raghavachari, A. P. Rendell, J. C. Burant, S. S. Iyengar, 
 J. Tomasi, M. Cossi, J. M. Millam, M. Klene, C. Adamo, R. Cammi, 
 J. W. Ochterski, R. L. Martin, K. Morokuma, O. Farkas, 
 J. B. Foresman, and D. J. Fox, Gaussian, Inc., Wallingford CT, 2016.
 
 ******************************************
 Gaussian 16:  ES64L-G16RevB.01 20-Dec-2017
                23-Dec-2020 
 ******************************************
 %NProcShared=16
 Will use up to   16 processors via shared memory.
 %Mem=6GB
 ----------------------------------------------------------------------
 # B3LYP/6-31+G* IRC=(CALCALL, maxpoints=40, StepSize=15, maxcyc=100, R
 eport=Cartesians)
 ----------------------------------------------------------------------
 1/6=100,10=4,18=10,26=3,38=1,39=15,42=40,44=3,71=1,129=10,172=1/1,23;
 2/12=2,17=6,18=5,29=1,40=1/2;
 3/5=1,6=6,7=11,11=2,25=1,30=1,71=2,74=-5,140=1/1,2,3;
 4//1;
 5/5=2,38=5/2;
 8/6=4,10=90,11=11/1;
 11/6=1,8=1,9=11,15=111,16=1/1,2,10;
 10/6=1,13=1/2;
 6/7=2,8=2,9=2,10=2,18=1,28=1/1;
 7/10=1,25=1/1,2,3,16;
 1/6=100,10=4,18=10,26=3,39=15,42=40,44=3,71=1,129=10/23(2);
 2/29=1/2;
 99/5=20/99;
 2/29=1/2;
 3/5=1,6=6,7=11,11=2,25=1,30=1,71=2,74=-5,140=1/1,2,3;
 4/5=5,16=3,69=1/1;
 5/5=2,38=5/2;
 8/6=4,10=90,11=11/1;
 11/6=1,8=1,9=11,15=111,16=1/1,2,10;
 10/6=1,13=1/2;
 7/10=1,25=1/1,2,3,16;
 1/6=100,10=4,18=10,26=3,39=15,42=40,44=3,71=1,129=10/23(-8);
 2/29=1/2;
 6/7=2,8=2,9=2,10=2,18=1,19=2,28=1/1;
 99/5=20/99;
 ----------
 pp_9_0 IRC
 ----------
 Symbolic Z-matrix:
 Charge =  0 Multiplicity = 1
 C                    -0.42339   1.47934  -0.45981 
 C                    -0.73446   0.67016   0.6605 
 C                    -1.19344  -0.73292   0.44793 
 O                     1.21612   0.1178    0.0083 
 O                     2.4014   -0.64129  -0.1541 
 O                    -1.76183  -1.1001   -0.56338 
 H                     3.03208  -0.18914   0.43626 
 H                    -0.02091   2.47648  -0.32662 
 H                    -0.63954   1.10167  -1.45192 
 H                    -0.98921  -1.41614   1.29046 
 H                    -0.48516   1.02185   1.65681 
 H                    -1.63512   1.49459   0.17664 
 
 IRC-IRC-IRC-IRC-IRC-IRC-IRC-IRC-IRC-IRC-IRC-IRC-IRC-IRC-IRC-IRC-IRC-IRC
 ------------------------------------------------------------------------
 INPUT DATA FOR L123
 ------------------------------------------------------------------------
 GENERAL PARAMETERS:
 Follow reaction path in both directions.
 Maximum points per path      =  40
 Step size                    =   0.150 bohr
 Integration scheme           = HPC                                 
    Redo corrector integration= Yes                                 
    DWI Weight Power          =  2
    DWI will use Hessian update vectors when possible.
    Max correction cycles     = 100
 Initial Hessian              = CalcFC
 Hessian evaluation           = Analytic at all predictor steps
                              = Update at all corrector steps
 Hessian updating method      = Bofill                              
 ------------------------------------------------------------------------
 IRC-IRC-IRC-IRC-IRC-IRC-IRC-IRC-IRC-IRC-IRC-IRC-IRC-IRC-IRC-IRC-IRC-IRC
                          Input orientation:                          
 ---------------------------------------------------------------------
 Center     Atomic      Atomic             Coordinates (Angstroms)
 Number     Number       Type             X           Y           Z
 ---------------------------------------------------------------------
      1          6           0       -0.423387    1.479339   -0.459808
      2          6           0       -0.734458    0.670159    0.660501
      3          6           0       -1.193436   -0.732922    0.447929
      4          8           0        1.216121    0.117795    0.008304
      5          8           0        2.401403   -0.641290   -0.154095
      6          8           0       -1.761833   -1.100101   -0.563379
      7          1           0        3.032082   -0.189141    0.436259
      8          1           0       -0.020905    2.476483   -0.326622
      9          1           0       -0.639540    1.101671   -1.451919
     10          1           0       -0.989209   -1.416140    1.290456
     11          1           0       -0.485157    1.021852    1.656814
     12          1           0       -1.635116    1.494591    0.176644
 ---------------------------------------------------------------------
                    Distance matrix (angstroms):
                    1          2          3          4          5
     1  C    0.000000
     2  C    1.416556   0.000000
     3  C    2.512182   1.491470   0.000000
     4  O    2.181953   2.129607   2.592866   0.000000
     5  O    3.545415   3.495295   3.646052   1.416855   0.000000
     6  O    2.907864   2.384786   1.216815   3.267767   4.208391
     7  H    3.940435   3.869820   4.260380   1.890785   0.975045
     8  H    1.083525   2.178618   3.503575   2.684365   3.951943
     9  H    1.083346   2.158131   2.698510   2.558074   3.737592
    10  H    3.430361   2.194171   1.103788   2.976634   3.766081
    11  H    2.166379   1.085578   2.245505   2.535597   3.791789
    12  H    1.368792   1.313389   2.287027   3.170719   4.578740
                    6          7          8          9         10
     6  O    0.000000
     7  H    4.981039   0.000000
     8  H    3.984826   4.124108   0.000000
     9  H    2.626184   4.325762   1.881252   0.000000
    10  H    2.033109   4.290217   4.324936   3.739286   0.000000
    11  H    3.325935   3.915000   2.503098   3.113587   2.516365
    12  H    2.701133   4.968409   1.955266   1.948788   3.182786
                   11         12
    11  H    0.000000
    12  H    1.933078   0.000000
 Symmetry turned off by external request.
 Stoichiometry    C3H6O3
 Framework group  C1[X(C3H6O3)]
 Deg. of freedom    30
 Full point group                 C1      NOp   1
 Rotational constants (GHZ):           5.0926080           2.2231669           1.7937657
 Standard basis: 6-31+G(d) (6D, 7F)
   126 basis functions,   216 primitive gaussians,   126 cartesian basis functions
    24 alpha electrons       24 beta electrons
       nuclear repulsion energy       232.3557201604 Hartrees.
 NAtoms=   12 NActive=   12 NUniq=   12 SFac= 1.00D+00 NAtFMM=   60 NAOKFM=F Big=F
 Integral buffers will be    131072 words long.
 Raffenetti 2 integral format.
 Two-electron integral symmetry is turned off.
 One-electron integrals computed using PRISM.
 NBasis=   126 RedAO= T EigKep=  8.46D-05  NBF=   126
 NBsUse=   126 1.00D-06 EigRej= -1.00D+00 NBFU=   126
 ExpMin= 4.38D-02 ExpMax= 5.48D+03 ExpMxC= 8.25D+02 IAcc=3 IRadAn=         5 AccDes= 0.00D+00
 Harris functional with IExCor=  402 and IRadAn=       5 diagonalized for initial guess.
 HarFok:  IExCor=  402 AccDes= 0.00D+00 IRadAn=         5 IDoV= 1 UseB2=F ITyADJ=14
 ICtDFT=  3500011 ScaDFX=  1.000000  1.000000  1.000000  1.000000
 FoFCou: FMM=F IPFlag=           0 FMFlag=      100000 FMFlg1=           0
         NFxFlg=           0 DoJE=T BraDBF=F KetDBF=T FulRan=T
         wScrn=  0.000000 ICntrl=       500 IOpCl=  0 I1Cent=   200000004 NGrid=           0
         NMat0=    1 NMatS0=      1 NMatT0=    0 NMatD0=    1 NMtDS0=    0 NMtDT0=    0
 Symmetry not used in FoFCou.
 Keep R1 ints in memory in canonical form, NReq=47237219.
 Requested convergence on RMS density matrix=1.00D-08 within 128 cycles.
 Requested convergence on MAX density matrix=1.00D-06.
 Requested convergence on             energy=1.00D-06.
 No special actions if energy rises.
 SCF Done:  E(RB3LYP) =  -343.359024779     A.U. after   15 cycles
            NFock= 15  Conv=0.45D-08     -V/T= 2.0092
 DoSCS=F DFT=T ScalE2(SS,OS)=  1.000000  1.000000
 Range of M.O.s used for correlation:     1   126
 NBasis=   126 NAE=    24 NBE=    24 NFC=     0 NFV=     0
 NROrb=    126 NOA=    24 NOB=    24 NVA=   102 NVB=   102

 **** Warning!!: The largest alpha MO coefficient is  0.35404692D+02

 Symmetrizing basis deriv contribution to polar:
 IMax=3 JMax=2 DiffMx= 0.00D+00
 G2DrvN: will do    13 centers at a time, making    1 passes.
 Calling FoFCou, ICntrl=  3107 FMM=F I1Cent=   0 AccDes= 0.00D+00.
 End of G2Drv F.D. properties file   721 does not exist.
 End of G2Drv F.D. properties file   722 does not exist.
 End of G2Drv F.D. properties file   788 does not exist.
          IDoAtm=111111111111
          Differentiating once with respect to nuclear coordinates.
 Keep R1 ints in memory in canonical form, NReq=47193234.
          There are    39 degrees of freedom in the 1st order CPHF.  IDoFFX=6 NUNeed=     0.
     33 vectors produced by pass  0 Test12= 6.28D-15 2.56D-09 XBig12= 1.43D-01 1.84D-01.
 AX will form    33 AO Fock derivatives at one time.
     33 vectors produced by pass  1 Test12= 6.28D-15 2.56D-09 XBig12= 2.20D-02 5.19D-02.
     33 vectors produced by pass  2 Test12= 6.28D-15 2.56D-09 XBig12= 5.30D-04 4.64D-03.
     33 vectors produced by pass  3 Test12= 6.28D-15 2.56D-09 XBig12= 5.41D-06 3.66D-04.
     33 vectors produced by pass  4 Test12= 6.28D-15 2.56D-09 XBig12= 1.08D-08 1.50D-05.
     30 vectors produced by pass  5 Test12= 6.28D-15 2.56D-09 XBig12= 1.20D-11 5.34D-07.
      6 vectors produced by pass  6 Test12= 6.28D-15 2.56D-09 XBig12= 1.02D-14 1.35D-08.
 InvSVY:  IOpt=1 It=  1 EMax= 2.00D-15
 Solved reduced A of dimension   201 with    33 vectors.
 End of Minotr F.D. properties file   721 does not exist.
 End of Minotr F.D. properties file   722 does not exist.
 End of Minotr F.D. properties file   788 does not exist.

 **********************************************************************

            Population analysis using the SCF Density.

 **********************************************************************

 Alpha  occ. eigenvalues --  -19.19126 -19.16688 -19.16568 -10.30121 -10.27921
 Alpha  occ. eigenvalues --  -10.27799  -1.07682  -1.06223  -0.88305  -0.80508
 Alpha  occ. eigenvalues --   -0.69926  -0.59078  -0.54948  -0.51664  -0.48816
 Alpha  occ. eigenvalues --   -0.46170  -0.44930  -0.43108  -0.39510  -0.37144
 Alpha  occ. eigenvalues --   -0.35550  -0.28097  -0.24632  -0.22130
 Alpha virt. eigenvalues --   -0.09644  -0.02668  -0.00588   0.00726   0.01615
 Alpha virt. eigenvalues --    0.03493   0.05118   0.05994   0.06415   0.07525
 Alpha virt. eigenvalues --    0.08046   0.09593   0.10953   0.11858   0.14350
 Alpha virt. eigenvalues --    0.15094   0.16771   0.17916   0.19158   0.19841
 Alpha virt. eigenvalues --    0.21402   0.23470   0.24054   0.24772   0.25721
 Alpha virt. eigenvalues --    0.27501   0.28052   0.28759   0.31951   0.32393
 Alpha virt. eigenvalues --    0.33393   0.34940   0.36318   0.38613   0.44919
 Alpha virt. eigenvalues --    0.45782   0.60530   0.64361   0.67676   0.68621
 Alpha virt. eigenvalues --    0.71883   0.73005   0.80244   0.81694   0.88933
 Alpha virt. eigenvalues --    0.93484   0.94655   0.97367   0.99917   1.02764
 Alpha virt. eigenvalues --    1.06722   1.07848   1.11164   1.14707   1.18649
 Alpha virt. eigenvalues --    1.20235   1.22035   1.24465   1.27253   1.29874
 Alpha virt. eigenvalues --    1.31520   1.35330   1.40407   1.41729   1.45970
 Alpha virt. eigenvalues --    1.51703   1.57058   1.59924   1.63975   1.67015
 Alpha virt. eigenvalues --    1.68761   1.71594   1.77143   1.80537   1.82128
 Alpha virt. eigenvalues --    1.84662   1.87834   1.96166   1.97488   2.02755
 Alpha virt. eigenvalues --    2.05243   2.13405   2.16372   2.19468   2.29820
 Alpha virt. eigenvalues --    2.38268   2.44250   2.47561   2.49511   2.52117
 Alpha virt. eigenvalues --    2.54668   2.60762   2.70253   2.92950   3.07979
 Alpha virt. eigenvalues --    3.19913   3.85900   4.15276   4.23972   4.26124
 Alpha virt. eigenvalues --    4.28458   4.47535
          Condensed to atoms (all electrons):
               1          2          3          4          5          6
     1  C    5.752395  -0.193913  -0.018602  -0.069227   0.016108   0.071201
     2  C   -0.193913   6.717038  -0.088020  -0.026265  -0.020071  -0.213151
     3  C   -0.018602  -0.088020   4.944162   0.042029  -0.000921   0.464354
     4  O   -0.069227  -0.026265   0.042029   8.441845  -0.104787  -0.019390
     5  O    0.016108  -0.020071  -0.000921  -0.104787   8.468053   0.002542
     6  O    0.071201  -0.213151   0.464354  -0.019390   0.002542   8.137334
     7  H   -0.002571   0.005705  -0.002082  -0.016443   0.159574  -0.000055
     8  H    0.334386   0.008475   0.004821  -0.010374  -0.002088  -0.000622
     9  H    0.408320  -0.048263  -0.017414  -0.013325   0.001186   0.004977
    10  H    0.044245  -0.176477   0.410145  -0.010580   0.001602  -0.048976
    11  H   -0.015183   0.346852  -0.015245  -0.014176  -0.002392   0.004964
    12  H    0.153546   0.001684   0.021861   0.024165  -0.000922  -0.003003
               7          8          9         10         11         12
     1  C   -0.002571   0.334386   0.408320   0.044245  -0.015183   0.153546
     2  C    0.005705   0.008475  -0.048263  -0.176477   0.346852   0.001684
     3  C   -0.002082   0.004821  -0.017414   0.410145  -0.015245   0.021861
     4  O   -0.016443  -0.010374  -0.013325  -0.010580  -0.014176   0.024165
     5  O    0.159574  -0.002088   0.001186   0.001602  -0.002392  -0.000922
     6  O   -0.000055  -0.000622   0.004977  -0.048976   0.004964  -0.003003
     7  H    0.410686   0.000043  -0.000017  -0.000003   0.000041   0.000008
     8  H    0.000043   0.444727  -0.021997  -0.000088  -0.003698  -0.009358
     9  H   -0.000017  -0.021997   0.391501   0.000138   0.002987  -0.009044
    10  H   -0.000003  -0.000088   0.000138   0.597067   0.002408   0.000297
    11  H    0.000041  -0.003698   0.002987   0.002408   0.446634  -0.009806
    12  H    0.000008  -0.009358  -0.009044   0.000297  -0.009806   0.588330
 Mulliken charges:
               1
     1  C   -0.480705
     2  C   -0.313594
     3  C    0.254910
     4  O   -0.223472
     5  O   -0.517883
     6  O   -0.400175
     7  H    0.445116
     8  H    0.255774
     9  H    0.300951
    10  H    0.180224
    11  H    0.256612
    12  H    0.242242
 Sum of Mulliken charges =  -0.00000
 Mulliken charges with hydrogens summed into heavy atoms:
               1
     1  C    0.076020
     2  C    0.185260
     3  C    0.435134
     4  O   -0.223472
     5  O   -0.072767
     6  O   -0.400175
 APT charges:
               1
     1  C   -0.989850
     2  C   -0.497084
     3  C   -0.285809
     4  O   -0.245162
     5  O   -0.808747
     6  O   -0.256526
     7  H    0.720981
     8  H    0.614480
     9  H    0.444186
    10  H    0.440303
    11  H    0.518714
    12  H    0.344515
 Sum of APT charges =  -0.00000
 APT charges with hydrogens summed into heavy atoms:
               1
     1  C    0.068816
     2  C    0.366145
     3  C    0.154494
     4  O   -0.245162
     5  O   -0.087767
     6  O   -0.256526
 Electronic spatial extent (au):  <R**2>=            680.4364
 Charge=             -0.0000 electrons
 Dipole moment (field-independent basis, Debye):
    X=             -1.0481    Y=              4.4941    Z=              3.0577  Tot=              5.5358
 Quadrupole moment (field-independent basis, Debye-Ang):
   XX=            -37.2627   YY=            -33.8769   ZZ=            -34.2045
   XY=             -2.1978   XZ=              0.1229   YZ=             -2.8597
 Traceless Quadrupole moment (field-independent basis, Debye-Ang):
   XX=             -2.1480   YY=              1.2378   ZZ=              0.9102
   XY=             -2.1978   XZ=              0.1229   YZ=             -2.8597
 Octapole moment (field-independent basis, Debye-Ang**2):
  XXX=             33.9810  YYY=              8.5566  ZZZ=              0.4517  XYY=              1.0742
  XXY=             10.4494  XXZ=             15.0264  XZZ=              2.0938  YZZ=              0.9064
  YYZ=              2.3091  XYZ=              2.3962
 Hexadecapole moment (field-independent basis, Debye-Ang**3):
 XXXX=           -437.6915 YYYY=           -225.8426 ZZZZ=            -93.0697 XXXY=             -1.5211
 XXXZ=             26.2015 YYYX=              0.4282 YYYZ=             -3.4558 ZZZX=              3.7912
 ZZZY=              0.6696 XXYY=           -138.5580 XXZZ=           -103.3523 YYZZ=            -55.0140
 XXYZ=             -7.5224 YYXZ=             -4.2553 ZZXY=             -0.0819
 N-N= 2.323557201604D+02 E-N=-1.269548421811D+03  KE= 3.402281580435D+02
  Exact polarizability:   0.000   0.000   0.000   0.000   0.000   0.000
 Approx polarizability: 193.321 -36.949  90.454   1.605  -0.636  70.643
 Calling FoFJK, ICntrl=    100127 FMM=F ISym2X=0 I1Cent= 0 IOpClX= 0 NMat=1 NMatS=1 NMatT=0.
 -------------------------------------------------------------------
 Center     Atomic                   Forces (Hartrees/Bohr)
 Number     Number              X              Y              Z
 -------------------------------------------------------------------
      1        6           0.000007986    0.000026232   -0.000022496
      2        6          -0.000001310   -0.000013593    0.000037904
      3        6          -0.000000511   -0.000002087    0.000005734
      4        8          -0.000003016   -0.000009789   -0.000015491
      5        8           0.000003811    0.000002605    0.000010010
      6        8           0.000000364    0.000001935   -0.000002026
      7        1           0.000000627    0.000000042    0.000000079
      8        1           0.000002989    0.000000664   -0.000002325
      9        1           0.000001966    0.000000458   -0.000000452
     10        1          -0.000000948   -0.000000241   -0.000001583
     11        1          -0.000004951   -0.000009975   -0.000010122
     12        1          -0.000007008    0.000003750    0.000000768
 -------------------------------------------------------------------
 Cartesian Forces:  Max     0.000037904 RMS     0.000010146
 IRC-IRC-IRC-IRC-IRC-IRC-IRC-IRC-IRC-IRC-IRC-IRC-IRC-IRC-IRC-IRC-IRC-IRC
          ******** Start new reaction path calculation ********
 Supplied step size of   0.1500 bohr.
    Integration on MW PES will use step size of   0.1890 sqrt(amu)*bohr.
 Point Number:   0          Path Number:   1
 Calculating another point on the path.
 IRC-IRC-IRC-IRC-IRC-IRC-IRC-IRC-IRC-IRC-IRC-IRC-IRC-IRC-IRC-IRC-IRC-IRC
                          Input orientation:                          
 ---------------------------------------------------------------------
 Center     Atomic      Atomic             Coordinates (Angstroms)
 Number     Number       Type             X           Y           Z
 ---------------------------------------------------------------------
      1          6           0       -0.443437    1.532264   -0.437243
      2          6           0       -0.732143    0.712943    0.680877
      3          6           0       -1.202142   -0.683191    0.468265
      4          8           0        1.209182    0.168140    0.026130
      5          8           0        2.392804   -0.593047   -0.132725
      6          8           0       -1.769945   -1.050618   -0.543999
      7          1           0        3.023611   -0.142045    0.458491
      8          1           0       -0.020795    2.521415   -0.304916
      9          1           0       -0.637489    1.146590   -1.431152
     10          1           0       -0.999229   -1.366459    1.311181
     11          1           0       -0.504489    1.074092    1.679083
     12          1           0       -1.626290    1.585402    0.136256
 ---------------------------------------------------------------------
                    Distance matrix (angstroms):
                    1          2          3          4          5
     1  C    0.000000
     2  C    1.415920   0.000000
     3  C    2.510741   1.488387   0.000000
     4  O    2.192419   2.119964   2.595136   0.000000
     5  O    3.557238   3.483225   3.645950   1.416193   0.000000
     6  O    2.905563   2.384848   1.217407   3.268886   4.207968
     7  H    3.952984   3.858258   4.260273   1.890848   0.975119
     8  H    1.083769   2.179076   3.501841   2.675880   3.943980
     9  H    1.083631   2.158165   2.697168   2.547789   3.727589
    10  H    3.430524   2.189186   1.103874   2.980509   3.766819
    11  H    2.166214   1.085665   2.245182   2.547483   3.802145
    12  H    1.315624   1.362826   2.331662   3.171855   4.579422
                    6          7          8          9         10
     6  O    0.000000
     7  H    4.980830   0.000000
     8  H    3.984483   4.116457   0.000000
     9  H    2.626256   4.316826   1.881187   0.000000
    10  H    2.033581   4.290632   4.322577   3.737200   0.000000
    11  H    3.325336   3.926363   2.502989   3.113921   2.517223
    12  H    2.726167   4.970864   1.910070   1.904482   3.238386
                   11         12
    11  H    0.000000
    12  H    1.974890   0.000000
 Symmetry turned off by external request.
 Stoichiometry    C3H6O3
 Framework group  C1[X(C3H6O3)]
 Deg. of freedom    30
 Full point group                 C1      NOp   1
 Rotational constants (GHZ):           5.0865964           2.2242772           1.7935133
 Standard basis: 6-31+G(d) (6D, 7F)
   126 basis functions,   216 primitive gaussians,   126 cartesian basis functions
    24 alpha electrons       24 beta electrons
       nuclear repulsion energy       232.3635302124 Hartrees.
 NAtoms=   12 NActive=   12 NUniq=   12 SFac= 1.00D+00 NAtFMM=   60 NAOKFM=F Big=F
 Integral buffers will be    131072 words long.
 Raffenetti 2 integral format.
 Two-electron integral symmetry is turned off.
 One-electron integrals computed using PRISM.
 NBasis=   126 RedAO= T EigKep=  8.45D-05  NBF=   126
 NBsUse=   126 1.00D-06 EigRej= -1.00D+00 NBFU=   126
 Initial guess from the checkpoint file:  "/scratch/bell/zhao922/YARP/paper-example/KHP-network/pp_0/IRC-folder/Gau-36409.chk"
 B after Tr=    -0.014751    0.093970    0.036046
         Rot=    1.000000    0.000425    0.000278    0.000195 Ang=   0.06 deg.
 ExpMin= 4.38D-02 ExpMax= 5.48D+03 ExpMxC= 8.25D+02 IAcc=3 IRadAn=         5 AccDes= 0.00D+00
 Harris functional with IExCor=  402 and IRadAn=       5 diagonalized for initial guess.
 HarFok:  IExCor=  402 AccDes= 0.00D+00 IRadAn=         5 IDoV= 1 UseB2=F ITyADJ=14
 ICtDFT=  3500011 ScaDFX=  1.000000  1.000000  1.000000  1.000000
 FoFCou: FMM=F IPFlag=           0 FMFlag=      100000 FMFlg1=           0
         NFxFlg=           0 DoJE=T BraDBF=F KetDBF=T FulRan=T
         wScrn=  0.000000 ICntrl=       500 IOpCl=  0 I1Cent=   200000004 NGrid=           0
         NMat0=    1 NMatS0=      1 NMatT0=    0 NMatD0=    1 NMtDS0=    0 NMtDT0=    0
 Symmetry not used in FoFCou.
 Keep R1 ints in memory in canonical form, NReq=47237219.
 Requested convergence on RMS density matrix=1.00D-08 within 128 cycles.
 Requested convergence on MAX density matrix=1.00D-06.
 Requested convergence on             energy=1.00D-06.
 No special actions if energy rises.
 SCF Done:  E(RB3LYP) =  -343.359852288     A.U. after   13 cycles
            NFock= 13  Conv=0.52D-08     -V/T= 2.0092
 DoSCS=F DFT=T ScalE2(SS,OS)=  1.000000  1.000000
 Range of M.O.s used for correlation:     1   126
 NBasis=   126 NAE=    24 NBE=    24 NFC=     0 NFV=     0
 NROrb=    126 NOA=    24 NOB=    24 NVA=   102 NVB=   102

 **** Warning!!: The largest alpha MO coefficient is  0.34999177D+02

 Symmetrizing basis deriv contribution to polar:
 IMax=3 JMax=2 DiffMx= 0.00D+00
 G2DrvN: will do    13 centers at a time, making    1 passes.
 Calling FoFCou, ICntrl=  3107 FMM=F I1Cent=   0 AccDes= 0.00D+00.
 End of G2Drv F.D. properties file   721 does not exist.
 End of G2Drv F.D. properties file   722 does not exist.
 End of G2Drv F.D. properties file   788 does not exist.
          IDoAtm=111111111111
          Differentiating once with respect to nuclear coordinates.
 Keep R1 ints in memory in canonical form, NReq=47193234.
          There are    39 degrees of freedom in the 1st order CPHF.  IDoFFX=6 NUNeed=     0.
     33 vectors produced by pass  0 Test12= 6.28D-15 2.56D-09 XBig12= 1.44D-01 1.85D-01.
 AX will form    33 AO Fock derivatives at one time.
     33 vectors produced by pass  1 Test12= 6.28D-15 2.56D-09 XBig12= 1.95D-02 4.52D-02.
     33 vectors produced by pass  2 Test12= 6.28D-15 2.56D-09 XBig12= 4.17D-04 3.90D-03.
     33 vectors produced by pass  3 Test12= 6.28D-15 2.56D-09 XBig12= 3.52D-06 3.06D-04.
     33 vectors produced by pass  4 Test12= 6.28D-15 2.56D-09 XBig12= 7.94D-09 1.23D-05.
     30 vectors produced by pass  5 Test12= 6.28D-15 2.56D-09 XBig12= 8.61D-12 5.83D-07.
      8 vectors produced by pass  6 Test12= 6.28D-15 2.56D-09 XBig12= 6.81D-15 1.66D-08.
 InvSVY:  IOpt=1 It=  1 EMax= 1.78D-15
 Solved reduced A of dimension   203 with    33 vectors.
 End of Minotr F.D. properties file   721 does not exist.
 End of Minotr F.D. properties file   722 does not exist.
 End of Minotr F.D. properties file   788 does not exist.
 Calling FoFJK, ICntrl=    100127 FMM=F ISym2X=0 I1Cent= 0 IOpClX= 0 NMat=1 NMatS=1 NMatT=0.
 -------------------------------------------------------------------
 Center     Atomic                   Forces (Hartrees/Bohr)
 Number     Number              X              Y              Z
 -------------------------------------------------------------------
      1        6          -0.012243008    0.003948277    0.002491183
      2        6           0.011051104   -0.007214273    0.001311705
      3        6          -0.000649486    0.000299579    0.000783588
      4        8           0.001528026    0.001403116   -0.002494811
      5        8          -0.000968510   -0.001536526    0.002499219
      6        8          -0.000088053    0.000159389   -0.000226297
      7        1          -0.000026591   -0.000166668    0.000239010
      8        1           0.000867941   -0.000566385    0.000124231
      9        1           0.001095754   -0.000350634    0.000216232
     10        1          -0.000218353   -0.000041452    0.000104526
     11        1          -0.000934801    0.000069408    0.000118259
     12        1           0.000585977    0.003996169   -0.005166844
 -------------------------------------------------------------------
 Cartesian Forces:  Max     0.012243008 RMS     0.003396769
 IRC-IRC-IRC-IRC-IRC-IRC-IRC-IRC-IRC-IRC-IRC-IRC-IRC-IRC-IRC-IRC-IRC-IRC
 Pt  1 Step number   1 out of a maximum of 100
 Modified Bulirsch-Stoer Extrapolation Cycles:
    EPS =    0.000010000000000
      PEZero:  N= 2 I= 1 D=  4.92D-04 Err=  8.74D-04
      PEZero:  N= 3 I= 2 D=  4.92D-04 Err=  5.83D-04
      PEZero:  N= 3 I= 1 D=  9.84D-04 Err=  1.86D-07
 Maximum DWI energy   std dev =  0.000001835 at pt     1
 Maximum DWI gradient std dev =  0.025000559 at pt    21
 CORRECTOR INTEGRATION CONVERGENCE:
   Recorrection delta-x convergence threshold:    0.010000
   Delta-x Convergence Met
 Point Number:   1          Path Number:   1
   CHANGE IN THE REACTION COORDINATE =    0.18890
   NET REACTION COORDINATE UP TO THIS POINT =    0.18890
  # OF POINTS ALONG THE PATH =   1
  # OF STEPS =   1

 Calculating another point on the path.
 IRC-IRC-IRC-IRC-IRC-IRC-IRC-IRC-IRC-IRC-IRC-IRC-IRC-IRC-IRC-IRC-IRC-IRC
                          Input orientation:                          
 ---------------------------------------------------------------------
 Center     Atomic      Atomic             Coordinates (Angstroms)
 Number     Number       Type             X           Y           Z
 ---------------------------------------------------------------------
      1          6           0       -0.455311    1.536008   -0.434685
      2          6           0       -0.721757    0.706131    0.681922
      3          6           0       -1.202754   -0.682994    0.469049
      4          8           0        1.210232    0.169212    0.024332
      5          8           0        2.392065   -0.594121   -0.130909
      6          8           0       -1.770000   -1.050499   -0.544155
      7          1           0        3.023101   -0.143973    0.460988
      8          1           0       -0.009899    2.515598   -0.303406
      9          1           0       -0.625022    1.142004   -1.430008
     10          1           0       -1.001822   -1.366907    1.312217
     11          1           0       -0.514359    1.075015    1.681698
     12          1           0       -1.615773    1.629593    0.077406
 ---------------------------------------------------------------------
                    Distance matrix (angstroms):
                    1          2          3          4          5
     1  C    0.000000
     2  C    1.416509   0.000000
     3  C    2.509856   1.485376   0.000000
     4  O    2.202921   2.110281   2.597408   0.000000
     5  O    3.568932   3.470913   3.645623   1.415453   0.000000
     6  O    2.903517   2.384917   1.217953   3.269963   4.207355
     7  H    3.965339   3.846485   4.260101   1.890833   0.975286
     8  H    1.084077   2.179859   3.500083   2.664894   3.933134
     9  H    1.083840   2.158608   2.696444   2.535663   3.715455
    10  H    3.431800   2.184764   1.104102   2.985213   3.768061
    11  H    2.166813   1.085653   2.243881   2.557647   3.810363
    12  H    1.271875   1.420383   2.381602   3.181483   4.588144
                    6          7          8          9         10
     6  O    0.000000
     7  H    4.980554   0.000000
     8  H    3.984089   4.105693   0.000000
     9  H    2.627315   4.305626   1.879991   0.000000
    10  H    2.033796   4.291872   4.320647   3.735828   0.000000
    11  H    3.323983   3.935695   2.504077   3.114394   2.517363
    12  H    2.755543   4.981147   1.873193   1.868589   3.298591
                   11         12
    11  H    0.000000
    12  H    2.023468   0.000000
 Symmetry turned off by external request.
 Stoichiometry    C3H6O3
 Framework group  C1[X(C3H6O3)]
 Deg. of freedom    30
 Full point group                 C1      NOp   1
 Rotational constants (GHZ):           5.0793660           2.2251821           1.7931785
 Standard basis: 6-31+G(d) (6D, 7F)
   126 basis functions,   216 primitive gaussians,   126 cartesian basis functions
    24 alpha electrons       24 beta electrons
       nuclear repulsion energy       232.3365451307 Hartrees.
 NAtoms=   12 NActive=   12 NUniq=   12 SFac= 1.00D+00 NAtFMM=   60 NAOKFM=F Big=F
 Integral buffers will be    131072 words long.
 Raffenetti 2 integral format.
 Two-electron integral symmetry is turned off.
 One-electron integrals computed using PRISM.
 NBasis=   126 RedAO= T EigKep=  8.45D-05  NBF=   126
 NBsUse=   126 1.00D-06 EigRej= -1.00D+00 NBFU=   126
 Initial guess from the checkpoint file:  "/scratch/bell/zhao922/YARP/paper-example/KHP-network/pp_0/IRC-folder/Gau-36409.chk"
 B after Tr=     0.000391    0.000596   -0.000892
         Rot=    1.000000    0.000409    0.000280    0.000201 Ang=   0.06 deg.
 ExpMin= 4.38D-02 ExpMax= 5.48D+03 ExpMxC= 8.25D+02 IAcc=3 IRadAn=         5 AccDes= 0.00D+00
 Harris functional with IExCor=  402 and IRadAn=       5 diagonalized for initial guess.
 HarFok:  IExCor=  402 AccDes= 0.00D+00 IRadAn=         5 IDoV= 1 UseB2=F ITyADJ=14
 ICtDFT=  3500011 ScaDFX=  1.000000  1.000000  1.000000  1.000000
 FoFCou: FMM=F IPFlag=           0 FMFlag=      100000 FMFlg1=           0
         NFxFlg=           0 DoJE=T BraDBF=F KetDBF=T FulRan=T
         wScrn=  0.000000 ICntrl=       500 IOpCl=  0 I1Cent=   200000004 NGrid=           0
         NMat0=    1 NMatS0=      1 NMatT0=    0 NMatD0=    1 NMtDS0=    0 NMtDT0=    0
 Symmetry not used in FoFCou.
 Keep R1 ints in memory in canonical form, NReq=47237219.
 Requested convergence on RMS density matrix=1.00D-08 within 128 cycles.
 Requested convergence on MAX density matrix=1.00D-06.
 Requested convergence on             energy=1.00D-06.
 No special actions if energy rises.
 SCF Done:  E(RB3LYP) =  -343.362272923     A.U. after   13 cycles
            NFock= 13  Conv=0.54D-08     -V/T= 2.0092
 DoSCS=F DFT=T ScalE2(SS,OS)=  1.000000  1.000000
 Range of M.O.s used for correlation:     1   126
 NBasis=   126 NAE=    24 NBE=    24 NFC=     0 NFV=     0
 NROrb=    126 NOA=    24 NOB=    24 NVA=   102 NVB=   102

 **** Warning!!: The largest alpha MO coefficient is  0.34428775D+02

 Symmetrizing basis deriv contribution to polar:
 IMax=3 JMax=2 DiffMx= 0.00D+00
 G2DrvN: will do    13 centers at a time, making    1 passes.
 Calling FoFCou, ICntrl=  3107 FMM=F I1Cent=   0 AccDes= 0.00D+00.
 End of G2Drv F.D. properties file   721 does not exist.
 End of G2Drv F.D. properties file   722 does not exist.
 End of G2Drv F.D. properties file   788 does not exist.
          IDoAtm=111111111111
          Differentiating once with respect to nuclear coordinates.
 Keep R1 ints in memory in canonical form, NReq=47193234.
          There are    39 degrees of freedom in the 1st order CPHF.  IDoFFX=6 NUNeed=     0.
     33 vectors produced by pass  0 Test12= 6.28D-15 2.56D-09 XBig12= 1.44D-01 1.87D-01.
 AX will form    33 AO Fock derivatives at one time.
     33 vectors produced by pass  1 Test12= 6.28D-15 2.56D-09 XBig12= 1.61D-02 3.76D-02.
     33 vectors produced by pass  2 Test12= 6.28D-15 2.56D-09 XBig12= 3.05D-04 3.09D-03.
     33 vectors produced by pass  3 Test12= 6.28D-15 2.56D-09 XBig12= 2.05D-06 2.24D-04.
     33 vectors produced by pass  4 Test12= 6.28D-15 2.56D-09 XBig12= 4.77D-09 9.29D-06.
     30 vectors produced by pass  5 Test12= 6.28D-15 2.56D-09 XBig12= 5.63D-12 4.58D-07.
      6 vectors produced by pass  6 Test12= 6.28D-15 2.56D-09 XBig12= 4.21D-15 1.32D-08.
 InvSVY:  IOpt=1 It=  1 EMax= 2.22D-15
 Solved reduced A of dimension   201 with    33 vectors.
 End of Minotr F.D. properties file   721 does not exist.
 End of Minotr F.D. properties file   722 does not exist.
 End of Minotr F.D. properties file   788 does not exist.
 Calling FoFJK, ICntrl=    100127 FMM=F ISym2X=0 I1Cent= 0 IOpClX= 0 NMat=1 NMatS=1 NMatT=0.
 -------------------------------------------------------------------
 Center     Atomic                   Forces (Hartrees/Bohr)
 Number     Number              X              Y              Z
 -------------------------------------------------------------------
      1        6          -0.023506216    0.007703739    0.004648990
      2        6           0.020956299   -0.013760949    0.002286878
      3        6          -0.001187330    0.000282236    0.001601008
      4        8           0.002843059    0.003055702   -0.004930675
      5        8          -0.002136908   -0.002916971    0.004963689
      6        8          -0.000128383    0.000350024   -0.000357241
      7        1          -0.000080468   -0.000310077    0.000435397
      8        1           0.001884400   -0.001154498    0.000237201
      9        1           0.002212145   -0.000734265    0.000343353
     10        1          -0.000475549   -0.000127078    0.000177921
     11        1          -0.001605539    0.000027752    0.000373866
     12        1           0.001224490    0.007584384   -0.009780388
 -------------------------------------------------------------------
 Cartesian Forces:  Max     0.023506216 RMS     0.006496753
 IRC-IRC-IRC-IRC-IRC-IRC-IRC-IRC-IRC-IRC-IRC-IRC-IRC-IRC-IRC-IRC-IRC-IRC
 Pt  2 Step number   1 out of a maximum of 100
 Modified Bulirsch-Stoer Extrapolation Cycles:
    EPS =    0.000010000000000
      PEZero:  N= 2 I= 1 D=  9.84D-04 Err=  2.83D-05
      PEZero:  N= 3 I= 2 D=  9.84D-04 Err=  1.87D-05
      PEZero:  N= 3 I= 1 D=  1.97D-03 Err=  1.70D-07
 Maximum DWI energy   std dev =  0.000006854 at pt    13
 Maximum DWI gradient std dev =  0.013109937 at pt    23
 CORRECTOR INTEGRATION CONVERGENCE:
   Recorrection delta-x convergence threshold:    0.010000
   Delta-x Convergence Met
 Point Number:   2          Path Number:   1
   CHANGE IN THE REACTION COORDINATE =    0.18887
   NET REACTION COORDINATE UP TO THIS POINT =    0.37776
  # OF POINTS ALONG THE PATH =   2
  # OF STEPS =   1

 Calculating another point on the path.
 IRC-IRC-IRC-IRC-IRC-IRC-IRC-IRC-IRC-IRC-IRC-IRC-IRC-IRC-IRC-IRC-IRC-IRC
                          Input orientation:                          
 ---------------------------------------------------------------------
 Center     Atomic      Atomic             Coordinates (Angstroms)
 Number     Number       Type             X           Y           Z
 ---------------------------------------------------------------------
      1          6           0       -0.467104    1.539895   -0.432374
      2          6           0       -0.711319    0.699241    0.683032
      3          6           0       -1.203325   -0.682930    0.469877
      4          8           0        1.211287    0.170434    0.022441
      5          8           0        2.391209   -0.595215   -0.129004
      6          8           0       -1.770041   -1.050356   -0.544273
      7          1           0        3.022515   -0.145807    0.463513
      8          1           0        0.002174    2.508908   -0.302000
      9          1           0       -0.611517    1.137323   -1.428603
     10          1           0       -1.004847   -1.367829    1.313202
     11          1           0       -0.523318    1.074780    1.684345
     12          1           0       -1.608321    1.674641    0.019478
 ---------------------------------------------------------------------
                    Distance matrix (angstroms):
                    1          2          3          4          5
     1  C    0.000000
     2  C    1.417911   0.000000
     3  C    2.509388   1.482532   0.000000
     4  O    2.213431   2.100578   2.599765   0.000000
     5  O    3.580598   3.458424   3.645138   1.414698   0.000000
     6  O    2.901649   2.385007   1.218470   3.271056   4.206614
     7  H    3.977644   3.834555   4.259844   1.890794   0.975495
     8  H    1.084530   2.180426   3.498122   2.652485   3.920841
     9  H    1.084154   2.158907   2.695883   2.522502   3.702297
    10  H    3.433811   2.180837   1.104390   2.990580   3.769627
    11  H    2.167946   1.085818   2.242072   2.566831   3.817275
    12  H    1.234789   1.482000   2.434137   3.195753   4.601145
                    6          7          8          9         10
     6  O    0.000000
     7  H    4.980204   0.000000
     8  H    3.983441   4.093408   0.000000
     9  H    2.628718   4.293333   1.878056   0.000000
    10  H    2.033844   4.293595   4.318803   3.734701   0.000000
    11  H    3.322237   3.943754   2.505680   3.114825   2.517132
    12  H    2.787396   4.995583   1.842022   1.838278   3.360733
                   11         12
    11  H    0.000000
    12  H    2.075777   0.000000
 Symmetry turned off by external request.
 Stoichiometry    C3H6O3
 Framework group  C1[X(C3H6O3)]
 Deg. of freedom    30
 Full point group                 C1      NOp   1
 Rotational constants (GHZ):           5.0712334           2.2259591           1.7927688
 Standard basis: 6-31+G(d) (6D, 7F)
   126 basis functions,   216 primitive gaussians,   126 cartesian basis functions
    24 alpha electrons       24 beta electrons
       nuclear repulsion energy       232.2911569498 Hartrees.
 NAtoms=   12 NActive=   12 NUniq=   12 SFac= 1.00D+00 NAtFMM=   60 NAOKFM=F Big=F
 Integral buffers will be    131072 words long.
 Raffenetti 2 integral format.
 Two-electron integral symmetry is turned off.
 One-electron integrals computed using PRISM.
 NBasis=   126 RedAO= T EigKep=  8.45D-05  NBF=   126
 NBsUse=   126 1.00D-06 EigRej= -1.00D+00 NBFU=   126
 Initial guess from the checkpoint file:  "/scratch/bell/zhao922/YARP/paper-example/KHP-network/pp_0/IRC-folder/Gau-36409.chk"
 B after Tr=     0.000381    0.000566   -0.000874
         Rot=    1.000000    0.000394    0.000279    0.000203 Ang=   0.06 deg.
 ExpMin= 4.38D-02 ExpMax= 5.48D+03 ExpMxC= 8.25D+02 IAcc=3 IRadAn=         5 AccDes= 0.00D+00
 Harris functional with IExCor=  402 and IRadAn=       5 diagonalized for initial guess.
 HarFok:  IExCor=  402 AccDes= 0.00D+00 IRadAn=         5 IDoV= 1 UseB2=F ITyADJ=14
 ICtDFT=  3500011 ScaDFX=  1.000000  1.000000  1.000000  1.000000
 FoFCou: FMM=F IPFlag=           0 FMFlag=      100000 FMFlg1=           0
         NFxFlg=           0 DoJE=T BraDBF=F KetDBF=T FulRan=T
         wScrn=  0.000000 ICntrl=       500 IOpCl=  0 I1Cent=   200000004 NGrid=           0
         NMat0=    1 NMatS0=      1 NMatT0=    0 NMatD0=    1 NMtDS0=    0 NMtDT0=    0
 Symmetry not used in FoFCou.
 Keep R1 ints in memory in canonical form, NReq=47237219.
 Requested convergence on RMS density matrix=1.00D-08 within 128 cycles.
 Requested convergence on MAX density matrix=1.00D-06.
 Requested convergence on             energy=1.00D-06.
 No special actions if energy rises.
 SCF Done:  E(RB3LYP) =  -343.366055730     A.U. after   12 cycles
            NFock= 12  Conv=0.85D-08     -V/T= 2.0092
 DoSCS=F DFT=T ScalE2(SS,OS)=  1.000000  1.000000
 Range of M.O.s used for correlation:     1   126
 NBasis=   126 NAE=    24 NBE=    24 NFC=     0 NFV=     0
 NROrb=    126 NOA=    24 NOB=    24 NVA=   102 NVB=   102

 **** Warning!!: The largest alpha MO coefficient is  0.33793271D+02

 Symmetrizing basis deriv contribution to polar:
 IMax=3 JMax=2 DiffMx= 0.00D+00
 G2DrvN: will do    13 centers at a time, making    1 passes.
 Calling FoFCou, ICntrl=  3107 FMM=F I1Cent=   0 AccDes= 0.00D+00.
 End of G2Drv F.D. properties file   721 does not exist.
 End of G2Drv F.D. properties file   722 does not exist.
 End of G2Drv F.D. properties file   788 does not exist.
          IDoAtm=111111111111
          Differentiating once with respect to nuclear coordinates.
 Keep R1 ints in memory in canonical form, NReq=47193234.
          There are    39 degrees of freedom in the 1st order CPHF.  IDoFFX=6 NUNeed=     0.
     33 vectors produced by pass  0 Test12= 6.28D-15 2.56D-09 XBig12= 1.45D-01 1.88D-01.
 AX will form    33 AO Fock derivatives at one time.
     33 vectors produced by pass  1 Test12= 6.28D-15 2.56D-09 XBig12= 1.24D-02 3.00D-02.
     33 vectors produced by pass  2 Test12= 6.28D-15 2.56D-09 XBig12= 2.07D-04 2.31D-03.
     33 vectors produced by pass  3 Test12= 6.28D-15 2.56D-09 XBig12= 1.29D-06 1.86D-04.
     33 vectors produced by pass  4 Test12= 6.28D-15 2.56D-09 XBig12= 2.68D-09 9.41D-06.
     30 vectors produced by pass  5 Test12= 6.28D-15 2.56D-09 XBig12= 3.40D-12 2.86D-07.
      8 vectors produced by pass  6 Test12= 6.28D-15 2.56D-09 XBig12= 3.78D-15 1.14D-08.
 InvSVY:  IOpt=1 It=  1 EMax= 1.44D-15
 Solved reduced A of dimension   203 with    33 vectors.
 End of Minotr F.D. properties file   721 does not exist.
 End of Minotr F.D. properties file   722 does not exist.
 End of Minotr F.D. properties file   788 does not exist.
 Calling FoFJK, ICntrl=    100127 FMM=F ISym2X=0 I1Cent= 0 IOpClX= 0 NMat=1 NMatS=1 NMatT=0.
 -------------------------------------------------------------------
 Center     Atomic                   Forces (Hartrees/Bohr)
 Number     Number              X              Y              Z
 -------------------------------------------------------------------
      1        6          -0.032474611    0.011142373    0.005802819
      2        6           0.029032993   -0.019193310    0.003221523
      3        6          -0.001515872   -0.000073438    0.002389981
      4        8           0.003911369    0.004890630   -0.007284207
      5        8          -0.003427762   -0.004138051    0.007309111
      6        8          -0.000122656    0.000602025   -0.000349863
      7        1          -0.000143454   -0.000414661    0.000603894
      8        1           0.002933905   -0.001780615    0.000310888
      9        1           0.003317542   -0.001066578    0.000477360
     10        1          -0.000772445   -0.000285991    0.000224383
     11        1          -0.001972350   -0.000252713    0.000572922
     12        1           0.001233341    0.010570330   -0.013278811
 -------------------------------------------------------------------
 Cartesian Forces:  Max     0.032474611 RMS     0.009031710
 IRC-IRC-IRC-IRC-IRC-IRC-IRC-IRC-IRC-IRC-IRC-IRC-IRC-IRC-IRC-IRC-IRC-IRC
 Pt  3 Step number   1 out of a maximum of 100
 Modified Bulirsch-Stoer Extrapolation Cycles:
    EPS =    0.000010000000000
      PEZero:  N= 2 I= 1 D=  9.84D-04 Err=  2.52D-05
      PEZero:  N= 3 I= 2 D=  9.84D-04 Err=  1.67D-05
      PEZero:  N= 3 I= 1 D=  1.97D-03 Err=  1.21D-07
 Maximum DWI energy   std dev =  0.000008893 at pt    28
 Maximum DWI gradient std dev =  0.006411086 at pt    24
 CORRECTOR INTEGRATION CONVERGENCE:
   Recorrection delta-x convergence threshold:    0.010000
   Delta-x Convergence Met
 Point Number:   3          Path Number:   1
   CHANGE IN THE REACTION COORDINATE =    0.18888
   NET REACTION COORDINATE UP TO THIS POINT =    0.56665
  # OF POINTS ALONG THE PATH =   3
  # OF STEPS =   1

 Calculating another point on the path.
 IRC-IRC-IRC-IRC-IRC-IRC-IRC-IRC-IRC-IRC-IRC-IRC-IRC-IRC-IRC-IRC-IRC-IRC
                          Input orientation:                          
 ---------------------------------------------------------------------
 Center     Atomic      Atomic             Coordinates (Angstroms)
 Number     Number       Type             X           Y           Z
 ---------------------------------------------------------------------
      1          6           0       -0.478875    1.543999   -0.430344
      2          6           0       -0.700820    0.692277    0.684176
      3          6           0       -1.203848   -0.683049    0.470773
      4          8           0        1.212345    0.171865    0.020388
      5          8           0        2.390212   -0.596359   -0.126947
      6          8           0       -1.770067   -1.050174   -0.544348
      7          1           0        3.021808   -0.147582    0.466125
      8          1           0        0.015582    2.501201   -0.300634
      9          1           0       -0.596815    1.132496   -1.426892
     10          1           0       -1.008418   -1.369290    1.314134
     11          1           0       -0.531194    1.073130    1.687060
     12          1           0       -1.603452    1.720088   -0.037176
 ---------------------------------------------------------------------
                    Distance matrix (angstroms):
                    1          2          3          4          5
     1  C    0.000000
     2  C    1.420157   0.000000
     3  C    2.509450   1.479898   0.000000
     4  O    2.223991   2.090848   2.602252   0.000000
     5  O    3.592331   3.445720   3.644455   1.413947   0.000000
     6  O    2.899984   2.385098   1.218956   3.272169   4.205721
     7  H    3.989973   3.822417   4.259450   1.890736   0.975730
     8  H    1.085148   2.180663   3.495930   2.638390   3.906905
     9  H    1.084597   2.158986   2.695520   2.508085   3.687970
    10  H    3.436695   2.177503   1.104707   2.996786   3.771581
    11  H    2.169760   1.086093   2.239639   2.574880   3.822621
    12  H    1.204268   1.546444   2.488526   3.213879   4.617720
                    6          7          8          9         10
     6  O    0.000000
     7  H    4.979738   0.000000
     8  H    3.982487   4.079383   0.000000
     9  H    2.630486   4.279783   1.875323   0.000000
    10  H    2.033691   4.295860   4.317030   3.733842   0.000000
    11  H    3.320001   3.950272   2.507844   3.115209   2.516393
    12  H    2.821229   5.013435   1.816815   1.813806   3.424085
                   11         12
    11  H    0.000000
    12  H    2.131028   0.000000
 Symmetry turned off by external request.
 Stoichiometry    C3H6O3
 Framework group  C1[X(C3H6O3)]
 Deg. of freedom    30
 Full point group                 C1      NOp   1
 Rotational constants (GHZ):           5.0621581           2.2266493           1.7922960
 Standard basis: 6-31+G(d) (6D, 7F)
   126 basis functions,   216 primitive gaussians,   126 cartesian basis functions
    24 alpha electrons       24 beta electrons
       nuclear repulsion energy       232.2283195763 Hartrees.
 NAtoms=   12 NActive=   12 NUniq=   12 SFac= 1.00D+00 NAtFMM=   60 NAOKFM=F Big=F
 Integral buffers will be    131072 words long.
 Raffenetti 2 integral format.
 Two-electron integral symmetry is turned off.
 One-electron integrals computed using PRISM.
 NBasis=   126 RedAO= T EigKep=  8.47D-05  NBF=   126
 NBsUse=   126 1.00D-06 EigRej= -1.00D+00 NBFU=   126
 Initial guess from the checkpoint file:  "/scratch/bell/zhao922/YARP/paper-example/KHP-network/pp_0/IRC-folder/Gau-36409.chk"
 B after Tr=     0.000387    0.000516   -0.000845
         Rot=    1.000000    0.000373    0.000277    0.000205 Ang=   0.06 deg.
 ExpMin= 4.38D-02 ExpMax= 5.48D+03 ExpMxC= 8.25D+02 IAcc=3 IRadAn=         5 AccDes= 0.00D+00
 Harris functional with IExCor=  402 and IRadAn=       5 diagonalized for initial guess.
 HarFok:  IExCor=  402 AccDes= 0.00D+00 IRadAn=         5 IDoV= 1 UseB2=F ITyADJ=14
 ICtDFT=  3500011 ScaDFX=  1.000000  1.000000  1.000000  1.000000
 FoFCou: FMM=F IPFlag=           0 FMFlag=      100000 FMFlg1=           0
         NFxFlg=           0 DoJE=T BraDBF=F KetDBF=T FulRan=T
         wScrn=  0.000000 ICntrl=       500 IOpCl=  0 I1Cent=   200000004 NGrid=           0
         NMat0=    1 NMatS0=      1 NMatT0=    0 NMatD0=    1 NMtDS0=    0 NMtDT0=    0
 Symmetry not used in FoFCou.
 Keep R1 ints in memory in canonical form, NReq=47237219.
 Requested convergence on RMS density matrix=1.00D-08 within 128 cycles.
 Requested convergence on MAX density matrix=1.00D-06.
 Requested convergence on             energy=1.00D-06.
 No special actions if energy rises.
 EnCoef did     4 forward-backward iterations
 SCF Done:  E(RB3LYP) =  -343.370858944     A.U. after   13 cycles
            NFock= 13  Conv=0.31D-08     -V/T= 2.0091
 DoSCS=F DFT=T ScalE2(SS,OS)=  1.000000  1.000000
 Range of M.O.s used for correlation:     1   126
 NBasis=   126 NAE=    24 NBE=    24 NFC=     0 NFV=     0
 NROrb=    126 NOA=    24 NOB=    24 NVA=   102 NVB=   102

 **** Warning!!: The largest alpha MO coefficient is  0.33179954D+02

 Symmetrizing basis deriv contribution to polar:
 IMax=3 JMax=2 DiffMx= 0.00D+00
 G2DrvN: will do    13 centers at a time, making    1 passes.
 Calling FoFCou, ICntrl=  3107 FMM=F I1Cent=   0 AccDes= 0.00D+00.
 End of G2Drv F.D. properties file   721 does not exist.
 End of G2Drv F.D. properties file   722 does not exist.
 End of G2Drv F.D. properties file   788 does not exist.
          IDoAtm=111111111111
          Differentiating once with respect to nuclear coordinates.
 Keep R1 ints in memory in canonical form, NReq=47193234.
          There are    39 degrees of freedom in the 1st order CPHF.  IDoFFX=6 NUNeed=     0.
     33 vectors produced by pass  0 Test12= 6.28D-15 2.56D-09 XBig12= 1.45D-01 1.88D-01.
 AX will form    33 AO Fock derivatives at one time.
     33 vectors produced by pass  1 Test12= 6.28D-15 2.56D-09 XBig12= 1.15D-02 3.58D-02.
     33 vectors produced by pass  2 Test12= 6.28D-15 2.56D-09 XBig12= 1.90D-04 2.31D-03.
     33 vectors produced by pass  3 Test12= 6.28D-15 2.56D-09 XBig12= 1.39D-06 1.95D-04.
     33 vectors produced by pass  4 Test12= 6.28D-15 2.56D-09 XBig12= 2.60D-09 7.54D-06.
     30 vectors produced by pass  5 Test12= 6.28D-15 2.56D-09 XBig12= 3.08D-12 2.65D-07.
      7 vectors produced by pass  6 Test12= 6.28D-15 2.56D-09 XBig12= 3.27D-15 1.11D-08.
 InvSVY:  IOpt=1 It=  1 EMax= 2.22D-15
 Solved reduced A of dimension   202 with    33 vectors.
 End of Minotr F.D. properties file   721 does not exist.
 End of Minotr F.D. properties file   722 does not exist.
 End of Minotr F.D. properties file   788 does not exist.
 Calling FoFJK, ICntrl=    100127 FMM=F ISym2X=0 I1Cent= 0 IOpClX= 0 NMat=1 NMatS=1 NMatT=0.
 -------------------------------------------------------------------
 Center     Atomic                   Forces (Hartrees/Bohr)
 Number     Number              X              Y              Z
 -------------------------------------------------------------------
      1        6          -0.038722266    0.014035011    0.006039641
      2        6           0.034740653   -0.023034432    0.003817196
      3        6          -0.001623337   -0.000776801    0.003096891
      4        8           0.004663838    0.006872787   -0.009504797
      5        8          -0.004732905   -0.005215101    0.009476529
      6        8          -0.000087347    0.000920641   -0.000225404
      7        1          -0.000215615   -0.000488042    0.000746831
      8        1           0.003848744   -0.002403947    0.000372775
      9        1           0.004261909   -0.001317439    0.000650848
     10        1          -0.001080845   -0.000486777    0.000249452
     11        1          -0.002012251   -0.000699541    0.000722805
     12        1           0.000959422    0.012593641   -0.015442766
 -------------------------------------------------------------------
 Cartesian Forces:  Max     0.038722266 RMS     0.010857449
 IRC-IRC-IRC-IRC-IRC-IRC-IRC-IRC-IRC-IRC-IRC-IRC-IRC-IRC-IRC-IRC-IRC-IRC
 Pt  4 Step number   1 out of a maximum of 100
 Modified Bulirsch-Stoer Extrapolation Cycles:
    EPS =    0.000010000000000
      PEZero:  N= 2 I= 1 D=  9.84D-04 Err=  1.91D-05
      PEZero:  N= 3 I= 2 D=  9.84D-04 Err=  1.27D-05
      PEZero:  N= 3 I= 1 D=  1.97D-03 Err=  8.51D-08
 Maximum DWI energy   std dev =  0.000009376 at pt    19
 Maximum DWI gradient std dev =  0.003971190 at pt    47
 CORRECTOR INTEGRATION CONVERGENCE:
   Recorrection delta-x convergence threshold:    0.010000
   Delta-x Convergence Met
 Point Number:   4          Path Number:   1
   CHANGE IN THE REACTION COORDINATE =    0.18889
   NET REACTION COORDINATE UP TO THIS POINT =    0.75553
  # OF POINTS ALONG THE PATH =   4
  # OF STEPS =   1

 Calculating another point on the path.
 IRC-IRC-IRC-IRC-IRC-IRC-IRC-IRC-IRC-IRC-IRC-IRC-IRC-IRC-IRC-IRC-IRC-IRC
                          Input orientation:                          
 ---------------------------------------------------------------------
 Center     Atomic      Atomic             Coordinates (Angstroms)
 Number     Number       Type             X           Y           Z
 ---------------------------------------------------------------------
      1          6           0       -0.490675    1.548365   -0.428600
      2          6           0       -0.690247    0.685258    0.685299
      3          6           0       -1.204312   -0.683400    0.471751
      4          8           0        1.213408    0.173569    0.018109
      5          8           0        2.389052   -0.597590   -0.124683
      6          8           0       -1.770081   -1.049937   -0.544377
      7          1           0        3.020931   -0.149355    0.468896
      8          1           0        0.030232    2.492348   -0.299210
      9          1           0       -0.580971    1.127515   -1.424731
     10          1           0       -1.012617   -1.371312    1.315027
     11          1           0       -0.537772    1.069939    1.689852
     12          1           0       -1.600423    1.765402   -0.092319
 ---------------------------------------------------------------------
                    Distance matrix (angstroms):
                    1          2          3          4          5
     1  C    0.000000
     2  C    1.423219   0.000000
     3  C    2.510116   1.477528   0.000000
     4  O    2.234617   2.081074   2.604910   0.000000
     5  O    3.604209   3.432762   3.643537   1.413229   0.000000
     6  O    2.898527   2.385173   1.219411   3.273312   4.204659
     7  H    4.002390   3.810019   4.258860   1.890668   0.975972
     8  H    1.085904   2.180349   3.493401   2.622466   3.891299
     9  H    1.085148   2.158647   2.695294   2.492307   3.672485
    10  H    3.440519   2.174847   1.105026   3.003970   3.773959
    11  H    2.172314   1.086441   2.236569   2.581634   3.826159
    12  H    1.179716   1.612397   2.543956   3.234776   4.636885
                    6          7          8          9         10
     6  O    0.000000
     7  H    4.979113   0.000000
     8  H    3.981082   4.063602   0.000000
     9  H    2.632547   4.264964   1.871666   0.000000
    10  H    2.033326   4.298677   4.315224   3.733192   0.000000
    11  H    3.317264   3.954969   2.510426   3.115414   2.515090
    12  H    2.856445   5.033703   1.797301   1.794855   3.487852
                   11         12
    11  H    0.000000
    12  H    2.188385   0.000000
 Symmetry turned off by external request.
 Stoichiometry    C3H6O3
 Framework group  C1[X(C3H6O3)]
 Deg. of freedom    30
 Full point group                 C1      NOp   1
 Rotational constants (GHZ):           5.0521976           2.2273116           1.7917790
 Standard basis: 6-31+G(d) (6D, 7F)
   126 basis functions,   216 primitive gaussians,   126 cartesian basis functions
    24 alpha electrons       24 beta electrons
       nuclear repulsion energy       232.1511120005 Hartrees.
 NAtoms=   12 NActive=   12 NUniq=   12 SFac= 1.00D+00 NAtFMM=   60 NAOKFM=F Big=F
 Integral buffers will be    131072 words long.
 Raffenetti 2 integral format.
 Two-electron integral symmetry is turned off.
 One-electron integrals computed using PRISM.
 NBasis=   126 RedAO= T EigKep=  8.48D-05  NBF=   126
 NBsUse=   126 1.00D-06 EigRej= -1.00D+00 NBFU=   126
 Initial guess from the checkpoint file:  "/scratch/bell/zhao922/YARP/paper-example/KHP-network/pp_0/IRC-folder/Gau-36409.chk"
 B after Tr=     0.000406    0.000450   -0.000807
         Rot=    1.000000    0.000347    0.000274    0.000208 Ang=   0.06 deg.
 ExpMin= 4.38D-02 ExpMax= 5.48D+03 ExpMxC= 8.25D+02 IAcc=3 IRadAn=         5 AccDes= 0.00D+00
 Harris functional with IExCor=  402 and IRadAn=       5 diagonalized for initial guess.
 HarFok:  IExCor=  402 AccDes= 0.00D+00 IRadAn=         5 IDoV= 1 UseB2=F ITyADJ=14
 ICtDFT=  3500011 ScaDFX=  1.000000  1.000000  1.000000  1.000000
 FoFCou: FMM=F IPFlag=           0 FMFlag=      100000 FMFlg1=           0
         NFxFlg=           0 DoJE=T BraDBF=F KetDBF=T FulRan=T
         wScrn=  0.000000 ICntrl=       500 IOpCl=  0 I1Cent=   200000004 NGrid=           0
         NMat0=    1 NMatS0=      1 NMatT0=    0 NMatD0=    1 NMtDS0=    0 NMtDT0=    0
 Symmetry not used in FoFCou.
 Keep R1 ints in memory in canonical form, NReq=47237219.
 Requested convergence on RMS density matrix=1.00D-08 within 128 cycles.
 Requested convergence on MAX density matrix=1.00D-06.
 Requested convergence on             energy=1.00D-06.
 No special actions if energy rises.
 EnCoef did     7 forward-backward iterations
 SCF Done:  E(RB3LYP) =  -343.376297610     A.U. after   13 cycles
            NFock= 13  Conv=0.32D-08     -V/T= 2.0091
 DoSCS=F DFT=T ScalE2(SS,OS)=  1.000000  1.000000
 Range of M.O.s used for correlation:     1   126
 NBasis=   126 NAE=    24 NBE=    24 NFC=     0 NFV=     0
 NROrb=    126 NOA=    24 NOB=    24 NVA=   102 NVB=   102

 **** Warning!!: The largest alpha MO coefficient is  0.32688028D+02

 Symmetrizing basis deriv contribution to polar:
 IMax=3 JMax=2 DiffMx= 0.00D+00
 G2DrvN: will do    13 centers at a time, making    1 passes.
 Calling FoFCou, ICntrl=  3107 FMM=F I1Cent=   0 AccDes= 0.00D+00.
 End of G2Drv F.D. properties file   721 does not exist.
 End of G2Drv F.D. properties file   722 does not exist.
 End of G2Drv F.D. properties file   788 does not exist.
          IDoAtm=111111111111
          Differentiating once with respect to nuclear coordinates.
 Keep R1 ints in memory in canonical form, NReq=47193234.
          There are    39 degrees of freedom in the 1st order CPHF.  IDoFFX=6 NUNeed=     0.
     33 vectors produced by pass  0 Test12= 6.28D-15 2.56D-09 XBig12= 1.45D-01 1.86D-01.
 AX will form    33 AO Fock derivatives at one time.
     33 vectors produced by pass  1 Test12= 6.28D-15 2.56D-09 XBig12= 1.29D-02 4.22D-02.
     33 vectors produced by pass  2 Test12= 6.28D-15 2.56D-09 XBig12= 1.87D-04 2.39D-03.
     33 vectors produced by pass  3 Test12= 6.28D-15 2.56D-09 XBig12= 1.35D-06 1.99D-04.
     33 vectors produced by pass  4 Test12= 6.28D-15 2.56D-09 XBig12= 2.41D-09 7.77D-06.
     29 vectors produced by pass  5 Test12= 6.28D-15 2.56D-09 XBig12= 2.58D-12 2.34D-07.
      7 vectors produced by pass  6 Test12= 6.28D-15 2.56D-09 XBig12= 2.56D-15 1.03D-08.
 InvSVY:  IOpt=1 It=  1 EMax= 9.99D-16
 Solved reduced A of dimension   201 with    33 vectors.
 End of Minotr F.D. properties file   721 does not exist.
 End of Minotr F.D. properties file   722 does not exist.
 End of Minotr F.D. properties file   788 does not exist.
 Calling FoFJK, ICntrl=    100127 FMM=F ISym2X=0 I1Cent= 0 IOpClX= 0 NMat=1 NMatS=1 NMatT=0.
 -------------------------------------------------------------------
 Center     Atomic                   Forces (Hartrees/Bohr)
 Number     Number              X              Y              Z
 -------------------------------------------------------------------
      1        6          -0.042278432    0.016249157    0.005572781
      2        6           0.038020836   -0.025167247    0.003924590
      3        6          -0.001530120   -0.001770884    0.003673241
      4        8           0.005079734    0.008936801   -0.011541980
      5        8          -0.005971745   -0.006162340    0.011428515
      6        8          -0.000039021    0.001293576   -0.000015369
      7        1          -0.000296042   -0.000538641    0.000867525
      8        1           0.004522399   -0.002970605    0.000437356
      9        1           0.004946753   -0.001475703    0.000859174
     10        1          -0.001374052   -0.000693553    0.000261843
     11        1          -0.001752053   -0.001230738    0.000817568
     12        1           0.000671744    0.013530178   -0.016285243
 -------------------------------------------------------------------
 Cartesian Forces:  Max     0.042278432 RMS     0.011966521
 IRC-IRC-IRC-IRC-IRC-IRC-IRC-IRC-IRC-IRC-IRC-IRC-IRC-IRC-IRC-IRC-IRC-IRC
 Pt  5 Step number   1 out of a maximum of 100
 Modified Bulirsch-Stoer Extrapolation Cycles:
    EPS =    0.000010000000000
      PEZero:  N= 2 I= 1 D=  9.84D-04 Err=  2.12D-05
      PEZero:  N= 3 I= 2 D=  9.84D-04 Err=  1.41D-05
      PEZero:  N= 3 I= 1 D=  1.97D-03 Err=  5.11D-08
 Maximum DWI energy   std dev =  0.000008889 at pt    67
 Maximum DWI gradient std dev =  0.003074594 at pt    47
 CORRECTOR INTEGRATION CONVERGENCE:
   Recorrection delta-x convergence threshold:    0.010000
   Delta-x Convergence Met
 Point Number:   5          Path Number:   1
   CHANGE IN THE REACTION COORDINATE =    0.18889
   NET REACTION COORDINATE UP TO THIS POINT =    0.94442
  # OF POINTS ALONG THE PATH =   5
  # OF STEPS =   1

 Calculating another point on the path.
 IRC-IRC-IRC-IRC-IRC-IRC-IRC-IRC-IRC-IRC-IRC-IRC-IRC-IRC-IRC-IRC-IRC-IRC
                          Input orientation:                          
 ---------------------------------------------------------------------
 Center     Atomic      Atomic             Coordinates (Angstroms)
 Number     Number       Type             X           Y           Z
 ---------------------------------------------------------------------
      1          6           0       -0.502557    1.553036   -0.427139
      2          6           0       -0.679564    0.678197    0.686331
      3          6           0       -1.204704   -0.684037    0.472821
      4          8           0        1.214475    0.175625    0.015537
      5          8           0        2.387701   -0.598948   -0.122144
      6          8           0       -1.770085   -1.049631   -0.544355
      7          1           0        3.019825   -0.151178    0.471912
      8          1           0        0.045973    2.482230   -0.297622
      9          1           0       -0.564097    1.122393   -1.421970
     10          1           0       -1.017529   -1.373897    1.315916
     11          1           0       -0.542773    1.065104    1.692708
     12          1           0       -1.598488    1.810020   -0.145660
 ---------------------------------------------------------------------
                    Distance matrix (angstroms):
                    1          2          3          4          5
     1  C    0.000000
     2  C    1.427056   0.000000
     3  C    2.511461   1.475479   0.000000
     4  O    2.245311   2.071214   2.607787   0.000000
     5  O    3.616303   3.419480   3.642334   1.412579   0.000000
     6  O    2.897282   2.385207   1.219821   3.274497   4.203398
     7  H    4.014949   3.797278   4.258003   1.890600   0.976208
     8  H    1.086766   2.179244   3.490419   2.604591   3.874034
     9  H    1.085785   2.157678   2.695144   2.475098   3.655909
    10  H    3.445341   2.172945   1.105328   3.012283   3.776791
    11  H    2.175648   1.086832   2.232884   2.586889   3.827588
    12  H    1.160318   1.678587   2.599597   3.257298   4.657616
                    6          7          8          9         10
     6  O    0.000000
     7  H    4.978279   0.000000
     8  H    3.979068   4.046087   0.000000
     9  H    2.634825   4.248914   1.866949   0.000000
    10  H    2.032757   4.302048   4.313266   3.732705   0.000000
    11  H    3.314038   3.957498   2.513221   3.115277   2.513184
    12  H    2.892405   5.055345   1.783034   1.780944   3.551203
                   11         12
    11  H    0.000000
    12  H    2.247005   0.000000
 Symmetry turned off by external request.
 Stoichiometry    C3H6O3
 Framework group  C1[X(C3H6O3)]
 Deg. of freedom    30
 Full point group                 C1      NOp   1
 Rotational constants (GHZ):           5.0414430           2.2280206           1.7912427
 Standard basis: 6-31+G(d) (6D, 7F)
   126 basis functions,   216 primitive gaussians,   126 cartesian basis functions
    24 alpha electrons       24 beta electrons
       nuclear repulsion energy       232.0633899956 Hartrees.
 NAtoms=   12 NActive=   12 NUniq=   12 SFac= 1.00D+00 NAtFMM=   60 NAOKFM=F Big=F
 Integral buffers will be    131072 words long.
 Raffenetti 2 integral format.
 Two-electron integral symmetry is turned off.
 One-electron integrals computed using PRISM.
 NBasis=   126 RedAO= T EigKep=  8.51D-05  NBF=   126
 NBsUse=   126 1.00D-06 EigRej= -1.00D+00 NBFU=   126
 Initial guess from the checkpoint file:  "/scratch/bell/zhao922/YARP/paper-example/KHP-network/pp_0/IRC-folder/Gau-36409.chk"
 B after Tr=     0.000436    0.000367   -0.000757
         Rot=    1.000000    0.000318    0.000269    0.000211 Ang=   0.05 deg.
 ExpMin= 4.38D-02 ExpMax= 5.48D+03 ExpMxC= 8.25D+02 IAcc=3 IRadAn=         5 AccDes= 0.00D+00
 Harris functional with IExCor=  402 and IRadAn=       5 diagonalized for initial guess.
 HarFok:  IExCor=  402 AccDes= 0.00D+00 IRadAn=         5 IDoV= 1 UseB2=F ITyADJ=14
 ICtDFT=  3500011 ScaDFX=  1.000000  1.000000  1.000000  1.000000
 FoFCou: FMM=F IPFlag=           0 FMFlag=      100000 FMFlg1=           0
         NFxFlg=           0 DoJE=T BraDBF=F KetDBF=T FulRan=T
         wScrn=  0.000000 ICntrl=       500 IOpCl=  0 I1Cent=   200000004 NGrid=           0
         NMat0=    1 NMatS0=      1 NMatT0=    0 NMatD0=    1 NMtDS0=    0 NMtDT0=    0
 Symmetry not used in FoFCou.
 Keep R1 ints in memory in canonical form, NReq=47237219.
 Requested convergence on RMS density matrix=1.00D-08 within 128 cycles.
 Requested convergence on MAX density matrix=1.00D-06.
 Requested convergence on             energy=1.00D-06.
 No special actions if energy rises.
 EnCoef did     6 forward-backward iterations
 SCF Done:  E(RB3LYP) =  -343.382002945     A.U. after   13 cycles
            NFock= 13  Conv=0.32D-08     -V/T= 2.0091
 DoSCS=F DFT=T ScalE2(SS,OS)=  1.000000  1.000000
 Range of M.O.s used for correlation:     1   126
 NBasis=   126 NAE=    24 NBE=    24 NFC=     0 NFV=     0
 NROrb=    126 NOA=    24 NOB=    24 NVA=   102 NVB=   102

 **** Warning!!: The largest alpha MO coefficient is  0.32410707D+02

 Symmetrizing basis deriv contribution to polar:
 IMax=3 JMax=2 DiffMx= 0.00D+00
 G2DrvN: will do    13 centers at a time, making    1 passes.
 Calling FoFCou, ICntrl=  3107 FMM=F I1Cent=   0 AccDes= 0.00D+00.
 End of G2Drv F.D. properties file   721 does not exist.
 End of G2Drv F.D. properties file   722 does not exist.
 End of G2Drv F.D. properties file   788 does not exist.
          IDoAtm=111111111111
          Differentiating once with respect to nuclear coordinates.
 Keep R1 ints in memory in canonical form, NReq=47193234.
          There are    39 degrees of freedom in the 1st order CPHF.  IDoFFX=6 NUNeed=     0.
     33 vectors produced by pass  0 Test12= 6.28D-15 2.56D-09 XBig12= 1.45D-01 1.80D-01.
 AX will form    33 AO Fock derivatives at one time.
     33 vectors produced by pass  1 Test12= 6.28D-15 2.56D-09 XBig12= 1.39D-02 4.35D-02.
     33 vectors produced by pass  2 Test12= 6.28D-15 2.56D-09 XBig12= 1.90D-04 2.46D-03.
     33 vectors produced by pass  3 Test12= 6.28D-15 2.56D-09 XBig12= 1.24D-06 1.91D-04.
     33 vectors produced by pass  4 Test12= 6.28D-15 2.56D-09 XBig12= 2.29D-09 6.76D-06.
     29 vectors produced by pass  5 Test12= 6.28D-15 2.56D-09 XBig12= 2.35D-12 2.44D-07.
      7 vectors produced by pass  6 Test12= 6.28D-15 2.56D-09 XBig12= 2.42D-15 1.04D-08.
 InvSVY:  IOpt=1 It=  1 EMax= 1.55D-15
 Solved reduced A of dimension   201 with    33 vectors.
 End of Minotr F.D. properties file   721 does not exist.
 End of Minotr F.D. properties file   722 does not exist.
 End of Minotr F.D. properties file   788 does not exist.
 Calling FoFJK, ICntrl=    100127 FMM=F ISym2X=0 I1Cent= 0 IOpClX= 0 NMat=1 NMatS=1 NMatT=0.
 -------------------------------------------------------------------
 Center     Atomic                   Forces (Hartrees/Bohr)
 Number     Number              X              Y              Z
 -------------------------------------------------------------------
      1        6          -0.043400803    0.017705530    0.004665473
      2        6           0.039152538   -0.025745463    0.003504878
      3        6          -0.001281715   -0.002953639    0.004075549
      4        8           0.005177216    0.011003882   -0.013350952
      5        8          -0.007099806   -0.006988143    0.013145316
      6        8           0.000007731    0.001692753    0.000246903
      7        1          -0.000382806   -0.000572942    0.000970015
      8        1           0.004886636   -0.003428918    0.000510170
      9        1           0.005312409   -0.001531153    0.001083455
     10        1          -0.001628451   -0.000874565    0.000271353
     11        1          -0.001246407   -0.001763663    0.000854439
     12        1           0.000503457    0.013456321   -0.015976599
 -------------------------------------------------------------------
 Cartesian Forces:  Max     0.043400803 RMS     0.012438194
 IRC-IRC-IRC-IRC-IRC-IRC-IRC-IRC-IRC-IRC-IRC-IRC-IRC-IRC-IRC-IRC-IRC-IRC
 Pt  6 Step number   1 out of a maximum of 100
 Modified Bulirsch-Stoer Extrapolation Cycles:
    EPS =    0.000010000000000
      PEZero:  N= 2 I= 1 D=  9.84D-04 Err=  2.62D-05
      PEZero:  N= 3 I= 2 D=  9.84D-04 Err=  1.75D-05
      PEZero:  N= 3 I= 1 D=  1.97D-03 Err=  4.67D-08
 Maximum DWI energy   std dev =  0.000007969 at pt    45
 Maximum DWI gradient std dev =  0.002756064 at pt    71
 CORRECTOR INTEGRATION CONVERGENCE:
   Recorrection delta-x convergence threshold:    0.010000
   Delta-x Convergence Met
 Point Number:   6          Path Number:   1
   CHANGE IN THE REACTION COORDINATE =    0.18888
   NET REACTION COORDINATE UP TO THIS POINT =    1.13331
  # OF POINTS ALONG THE PATH =   6
  # OF STEPS =   1

 Calculating another point on the path.
 IRC-IRC-IRC-IRC-IRC-IRC-IRC-IRC-IRC-IRC-IRC-IRC-IRC-IRC-IRC-IRC-IRC-IRC
                          Input orientation:                          
 ---------------------------------------------------------------------
 Center     Atomic      Atomic             Coordinates (Angstroms)
 Number     Number       Type             X           Y           Z
 ---------------------------------------------------------------------
      1          6           0       -0.514548    1.558040   -0.425954
      2          6           0       -0.668723    0.671096    0.687188
      3          6           0       -1.205014   -0.685022    0.473986
      4          8           0        1.215541    0.178125    0.012590
      5          8           0        2.386114   -0.600479   -0.119248
      6          8           0       -1.770080   -1.049239   -0.544277
      7          1           0        3.018419   -0.153108    0.475274
      8          1           0        0.062556    2.470778   -0.295763
      9          1           0       -0.546408    1.117201   -1.418475
     10          1           0       -1.023239   -1.377040    1.316854
     11          1           0       -0.545828    1.058535    1.695595
     12          1           0       -1.597014    1.853390   -0.196821
 ---------------------------------------------------------------------
                    Distance matrix (angstroms):
                    1          2          3          4          5
     1  C    0.000000
     2  C    1.431616   0.000000
     3  C    2.513556   1.473811   0.000000
     4  O    2.256035   2.061203   2.610938   0.000000
     5  O    3.628651   3.405770   3.640779   1.412036   0.000000
     6  O    2.896250   2.385172   1.220169   3.275738   4.201902
     7  H    4.027666   3.784077   4.256797   1.890545   0.976426
     8  H    1.087699   2.177112   3.486878   2.584708   3.855217
     9  H    1.086486   2.155873   2.695028   2.456476   3.638420
    10  H    3.451208   2.171870   1.105602   3.021883   3.780095
    11  H    2.179783   1.087243   2.228642   2.590377   3.826521
    12  H    1.145192   1.743851   2.654653   3.280371   4.678974
                    6          7          8          9         10
     6  O    0.000000
     7  H    4.977174   0.000000
     8  H    3.976284   4.026959   0.000000
     9  H    2.637244   4.231780   1.861046   0.000000
    10  H    2.032002   4.305957   4.311054   3.732375   0.000000
    11  H    3.310367   3.957413   2.515963   3.114623   2.510655
    12  H    2.928469   5.077398   1.773451   1.771492   3.613324
                   11         12
    11  H    0.000000
    12  H    2.306085   0.000000
 Symmetry turned off by external request.
 Stoichiometry    C3H6O3
 Framework group  C1[X(C3H6O3)]
 Deg. of freedom    30
 Full point group                 C1      NOp   1
 Rotational constants (GHZ):           5.0300119           2.2288675           1.7907192
 Standard basis: 6-31+G(d) (6D, 7F)
   126 basis functions,   216 primitive gaussians,   126 cartesian basis functions
    24 alpha electrons       24 beta electrons
       nuclear repulsion energy       231.9694564618 Hartrees.
 NAtoms=   12 NActive=   12 NUniq=   12 SFac= 1.00D+00 NAtFMM=   60 NAOKFM=F Big=F
 Integral buffers will be    131072 words long.
 Raffenetti 2 integral format.
 Two-electron integral symmetry is turned off.
 One-electron integrals computed using PRISM.
 NBasis=   126 RedAO= T EigKep=  8.53D-05  NBF=   126
 NBsUse=   126 1.00D-06 EigRej= -1.00D+00 NBFU=   126
 Initial guess from the checkpoint file:  "/scratch/bell/zhao922/YARP/paper-example/KHP-network/pp_0/IRC-folder/Gau-36409.chk"
 B after Tr=     0.000475    0.000271   -0.000693
         Rot=    1.000000    0.000284    0.000262    0.000214 Ang=   0.05 deg.
 ExpMin= 4.38D-02 ExpMax= 5.48D+03 ExpMxC= 8.25D+02 IAcc=3 IRadAn=         5 AccDes= 0.00D+00
 Harris functional with IExCor=  402 and IRadAn=       5 diagonalized for initial guess.
 HarFok:  IExCor=  402 AccDes= 0.00D+00 IRadAn=         5 IDoV= 1 UseB2=F ITyADJ=14
 ICtDFT=  3500011 ScaDFX=  1.000000  1.000000  1.000000  1.000000
 FoFCou: FMM=F IPFlag=           0 FMFlag=      100000 FMFlg1=           0
         NFxFlg=           0 DoJE=T BraDBF=F KetDBF=T FulRan=T
         wScrn=  0.000000 ICntrl=       500 IOpCl=  0 I1Cent=   200000004 NGrid=           0
         NMat0=    1 NMatS0=      1 NMatT0=    0 NMatD0=    1 NMtDS0=    0 NMtDT0=    0
 Symmetry not used in FoFCou.
 Keep R1 ints in memory in canonical form, NReq=47237219.
 Requested convergence on RMS density matrix=1.00D-08 within 128 cycles.
 Requested convergence on MAX density matrix=1.00D-06.
 Requested convergence on             energy=1.00D-06.
 No special actions if energy rises.
 EnCoef did     4 forward-backward iterations
 SCF Done:  E(RB3LYP) =  -343.387661532     A.U. after   13 cycles
            NFock= 13  Conv=0.29D-08     -V/T= 2.0092
 DoSCS=F DFT=T ScalE2(SS,OS)=  1.000000  1.000000
 Range of M.O.s used for correlation:     1   126
 NBasis=   126 NAE=    24 NBE=    24 NFC=     0 NFV=     0
[...]
  10                   -1.35791   1.27189  -0.48614   1.00358   1.65519
  11                   -1.35921   1.27035  -0.47335   0.99942   1.65267
  12                   -1.36035   1.26904  -0.46077   0.99558   1.64983
  13                   -1.36135   1.26795  -0.44840   0.99202   1.64672
  14                   -1.36225   1.26705  -0.43623   0.98871   1.64339
  15                   -1.36308   1.26634  -0.42425   0.98563   1.63987
  16                   -1.36386   1.26582  -0.41249   0.98277   1.63619
  17                   -1.36462   1.26548  -0.40096   0.98013   1.63240
  18                   -1.36538   1.26534  -0.38969   0.97770   1.62854
  19                   -1.36615   1.26542  -0.37874   0.97552   1.62465
  20                   -1.36696   1.26574  -0.36818   0.97360   1.62080
  21                   -1.36781   1.26634  -0.35812   0.97201   1.61707
  22                   -1.36872   1.26725  -0.34869   0.97080   1.61357
  23                   -1.36971   1.26851  -0.34010   0.97006   1.61044
  24                   -1.37077   1.27017  -0.33257   0.96991   1.60785
  25                   -1.37188   1.27227  -0.32643   0.97049   1.60603
  26                   -1.37303   1.27482  -0.32206   0.97198   1.60523
  27                   -1.37416   1.27783  -0.31996   0.97457   1.60575
  28                   -1.37519   1.28121  -0.32065   0.97848   1.60786
  29                   -1.37601   1.28483  -0.32462   0.98386   1.61174
  30                   -1.37652   1.28849  -0.33221   0.99076   1.61735
  31                   -1.37661   1.29197  -0.34336   0.99902   1.62436
  32                   -1.37627   1.29509  -0.35751   1.00825   1.63214
  33                   -1.37551   1.29776  -0.37372   1.01790   1.63996
  34                   -1.37443   1.30002  -0.39090   1.02743   1.64722
  35                   -1.37315   1.30193  -0.40815   1.03641   1.65362
  36                   -1.37177   1.30359  -0.42482   1.04460   1.65905
  37                   -1.37041   1.30507  -0.44059   1.05188   1.66360
  38                   -1.36913   1.30642  -0.45531   1.05820   1.66744
  39                   -1.36804   1.30769  -0.46896   1.06356   1.67074
  40                   -1.36720   1.30890  -0.48161   1.06797   1.67366
  41                   -1.36676   1.31005  -0.49318   1.07123   1.67641
  42                   -1.36662   1.31116  -0.50423   1.07367   1.67903
  43                   -1.36699   1.31221  -0.51424   1.07480   1.68166
  44                   -1.36789   1.31320  -0.52324   1.07462   1.68432
  45                   -1.36933   1.31413  -0.53113   1.07300   1.68704
  46                   -1.37134   1.31502  -0.53771   1.06983   1.68983
  47                   -1.37392   1.31591  -0.54271   1.06501   1.69269
  48                   -1.37705   1.31685  -0.54577   1.05846   1.69558
  49                   -1.38072   1.31790  -0.54640   1.05011   1.69843
  50                   -1.38489   1.31913  -0.54401   1.03992   1.70115
  51                   -1.38947   1.32062  -0.53791   1.02795   1.70354
  52                   -1.39435   1.32240  -0.52745   1.01439   1.70533
  53                   -1.39932   1.32445  -0.51230   0.99969   1.70618
  54                   -1.40410   1.32666  -0.49290   0.98462   1.70578
  55                   -1.40843   1.32885  -0.47058   0.96998   1.70401
  56                   -1.41217   1.33087  -0.44699   0.95634   1.70103
  57                   -1.41529   1.33264  -0.42338   0.94387   1.69711
  58                   -1.41782   1.33419  -0.40044   0.93248   1.69252
  59                   -1.41982   1.33553  -0.37843   0.92200   1.68747
  60                   -1.42136   1.33673  -0.35739   0.91226   1.68208
  61                   -1.42246   1.33783  -0.33725   0.90311   1.67644
  62                   -1.42316   1.33887  -0.31794   0.89444   1.67060
  63                   -1.42349   1.33987  -0.29936   0.88616   1.66461
  64                   -1.42345   1.34087  -0.28144   0.87821   1.65850
  65                   -1.42305   1.34188  -0.26411   0.87052   1.65228
  66                   -1.42231   1.34291  -0.24732   0.86305   1.64598
  67                   -1.42121   1.34397  -0.23100   0.85576   1.63963
  68                   -1.41978   1.34507  -0.21512   0.84861   1.63323
  69                   -1.41800   1.34619  -0.19961   0.84155   1.62682
  70                   -1.41588   1.34735  -0.18442   0.83456   1.62041
  71                   -1.41344   1.34851  -0.16950   0.82760   1.61403
  72                   -1.41070   1.34966  -0.15478   0.82063   1.60769
  73                   -1.40770   1.35075  -0.14020   0.81364   1.60144
  74                   -1.40451   1.35174  -0.12572   0.80661   1.59528
  75                   -1.40125   1.35254  -0.11129   0.79955   1.58927
  76                   -1.39806   1.35305  -0.09688   0.79251   1.58341
  77                   -1.39515   1.35317  -0.08250   0.78555   1.57773
  78                   -1.39277   1.35277  -0.06817   0.77878   1.57223
  79                   -1.39114   1.35174  -0.05391   0.77234   1.56687
  80                   -1.39047   1.34997  -0.03979   0.76633   1.56161
  81                   -1.39088   1.34740  -0.02584   0.76087   1.55641
                          X12       Y12       Z12
   1                   -1.86847   1.43298   0.44465
   2                   -1.87104   1.42946   0.46529
   3                   -1.87359   1.42580   0.48595
   4                   -1.87613   1.42195   0.50661
   5                   -1.87866   1.41790   0.52722
   6                   -1.88112   1.41364   0.54767
   7                   -1.88348   1.40918   0.56783
   8                   -1.88567   1.40454   0.58758
   9                   -1.88765   1.39976   0.60685
  10                   -1.88938   1.39485   0.62558
  11                   -1.89085   1.38983   0.64376
  12                   -1.89202   1.38471   0.66139
  13                   -1.89290   1.37948   0.67850
  14                   -1.89349   1.37414   0.69509
  15                   -1.89379   1.36868   0.71117
  16                   -1.89380   1.36309   0.72673
  17                   -1.89353   1.35733   0.74174
  18                   -1.89299   1.35140   0.75613
  19                   -1.89220   1.34525   0.76982
  20                   -1.89115   1.33888   0.78266
  21                   -1.88987   1.33225   0.79448
  22                   -1.88839   1.32533   0.80501
  23                   -1.88670   1.31813   0.81391
  24                   -1.88481   1.31065   0.82072
  25                   -1.88270   1.30296   0.82486
  26                   -1.88031   1.29521   0.82556
  27                   -1.87747   1.28773   0.82186
  28                   -1.87389   1.28107   0.81268
  29                   -1.86913   1.27609   0.79687
  30                   -1.86251   1.27398   0.77345
  31                   -1.85331   1.27606   0.74199
  32                   -1.84088   1.28338   0.70285
  33                   -1.82488   1.29639   0.65711
  34                   -1.80542   1.31484   0.60625
  35                   -1.78302   1.33804   0.55176
  36                   -1.75852   1.36521   0.49480
  37                   -1.73297   1.39571   0.43625
  38                   -1.70753   1.42907   0.37670
  39                   -1.68336   1.46502   0.31661
  40                   -1.66155   1.50334   0.25634
  41                   -1.64314   1.54397   0.19624
  42                   -1.62791   1.58611   0.13647
  43                   -1.61666   1.62990   0.07754
  44                   -1.60884   1.67477   0.01962
  45                   -1.60375   1.72012  -0.03705
  46                   -1.60058   1.76538  -0.09220
  47                   -1.59854   1.80996  -0.14556
  48                   -1.59699   1.85331  -0.19673
  49                   -1.59547   1.89487  -0.24523
  50                   -1.59373   1.93409  -0.29038
  51                   -1.59179   1.97029  -0.33126
  52                   -1.58990   2.00264  -0.36657
  53                   -1.58854   2.03011  -0.39478
  54                   -1.58826   2.05177  -0.41455
  55                   -1.58944   2.06730  -0.42559
  56                   -1.59208   2.07727  -0.42894
  57                   -1.59590   2.08280  -0.42633
  58                   -1.60053   2.08503  -0.41948
  59                   -1.60567   2.08488  -0.40972
  60                   -1.61105   2.08302  -0.39803
  61                   -1.61651   2.07990  -0.38503
  62                   -1.62192   2.07584  -0.37117
  63                   -1.62721   2.07106  -0.35673
  64                   -1.63232   2.06568  -0.34189
  65                   -1.63721   2.05982  -0.32678
  66                   -1.64189   2.05353  -0.31147
  67                   -1.64633   2.04685  -0.29600
  68                   -1.65054   2.03983  -0.28036
  69                   -1.65453   2.03247  -0.26457
  70                   -1.65830   2.02479  -0.24860
  71                   -1.66187   2.01679  -0.23241
  72                   -1.66525   2.00849  -0.21598
  73                   -1.66847   1.99992  -0.19926
  74                   -1.67154   1.99112  -0.18225
  75                   -1.67450   1.98216  -0.16496
  76                   -1.67736   1.97316  -0.14742
  77                   -1.68018   1.96426  -0.12975
  78                   -1.68297   1.95565  -0.11206
  79                   -1.68577   1.94748  -0.09446
  80                   -1.68859   1.93987  -0.07704
  81                   -1.69145   1.93288  -0.05984
 --------------------------------------------------------------------------
 
 Total number of points:                   80
 Total number of gradient calculations:    81
 Total number of Hessian calculations:     81
 IRC-IRC-IRC-IRC-IRC-IRC-IRC-IRC-IRC-IRC-IRC-IRC-IRC-IRC-IRC-IRC-IRC-IRC
                          Input orientation:                          
 ---------------------------------------------------------------------
 Center     Atomic      Atomic             Coordinates (Angstroms)
 Number     Number       Type             X           Y           Z
 ---------------------------------------------------------------------
      1          6           0        0.153339    1.122489   -0.372632
      2          6           0       -0.968883    0.840261    0.645651
      3          6           0       -1.269004   -0.650393    0.474741
      4          8           0        1.067198    0.164676    0.250410
      5          8           0        2.276789   -0.340317   -0.383239
      6          8           0       -1.773403   -1.077369   -0.542156
      7          1           0        2.950639    0.127349    0.144650
      8          1           0        0.545411    2.146504   -0.352431
      9          1           0       -0.137249    0.825800   -1.384473
     10          1           0       -0.989615   -1.330928    1.301276
     11          1           0       -0.606602    1.058420    1.655402
     12          1           0       -1.868543    1.433021    0.444643
 ---------------------------------------------------------------------
                    Distance matrix (angstroms):
                    1          2          3          4          5
     1  C    0.000000
     2  C    1.541407   0.000000
     3  C    2.425740   1.530141   0.000000
     4  O    1.463121   2.181342   2.484452   0.000000
     5  O    2.578556   3.603715   3.661274   1.455898   0.000000
     6  O    2.929240   2.394878   1.212768   3.199976   4.119776
     7  H    3.013763   4.015208   4.303397   1.886777   0.975423
     8  H    1.096693   2.235067   3.434960   2.136193   3.030329
     9  H    1.093749   2.193907   2.629960   2.135560   2.861796
    10  H    3.182384   2.268113   1.106501   2.751660   3.806350
    11  H    2.166688   1.094732   2.180087   2.361014   3.798218
    12  H    2.202810   1.095973   2.168171   3.203903   4.584090
                    6          7          8          9         10
     6  O    0.000000
     7  H    4.923374   0.000000
     8  H    3.975707   3.179496   0.000000
     9  H    2.647366   3.515835   1.809805   0.000000
    10  H    2.019123   4.357747   4.145309   3.548415   0.000000
    11  H    3.279067   3.975327   2.557822   3.084679   2.445626
    12  H    2.699051   5.001928   2.640371   2.590706   3.024193
                   11         12
    11  H    0.000000
    12  H    1.788507   0.000000
 Symmetry turned off by external request.
 Stoichiometry    C3H6O3
 Framework group  C1[X(C3H6O3)]
 Deg. of freedom    30
 Full point group                 C1      NOp   1
 Rotational constants (GHZ):           6.3411359           2.2865617           1.9446777

 **********************************************************************

            Population analysis using the SCF Density.

 **********************************************************************

 Alpha  occ. eigenvalues --  -19.22699 -19.22501 -19.16235 -10.28910 -10.26786
 Alpha  occ. eigenvalues --  -10.21816  -1.12555  -1.05746  -0.94061  -0.77747
 Alpha  occ. eigenvalues --   -0.66825  -0.58056  -0.55443  -0.51781  -0.48415
 Alpha  occ. eigenvalues --   -0.45931  -0.44603  -0.42742  -0.40369  -0.38930
 Alpha  occ. eigenvalues --   -0.36842  -0.31276  -0.29042  -0.26495
 Alpha virt. eigenvalues --   -0.03975  -0.01643   0.00534   0.01465   0.02441
 Alpha virt. eigenvalues --    0.04143   0.04872   0.06926   0.07305   0.08115
 Alpha virt. eigenvalues --    0.08959   0.11395   0.12455   0.12746   0.15485
 Alpha virt. eigenvalues --    0.16524   0.18139   0.18689   0.20562   0.21718
 Alpha virt. eigenvalues --    0.22382   0.23347   0.23429   0.24963   0.26147
 Alpha virt. eigenvalues --    0.27118   0.28226   0.30220   0.30372   0.31523
 Alpha virt. eigenvalues --    0.33554   0.34493   0.36217   0.39583   0.42102
 Alpha virt. eigenvalues --    0.43349   0.62087   0.64442   0.67171   0.68248
 Alpha virt. eigenvalues --    0.72716   0.74716   0.79151   0.79484   0.89368
 Alpha virt. eigenvalues --    0.93791   0.94782   0.95619   0.99023   1.04996
 Alpha virt. eigenvalues --    1.05798   1.07616   1.10971   1.15167   1.16241
 Alpha virt. eigenvalues --    1.22335   1.22619   1.25753   1.26912   1.28902
 Alpha virt. eigenvalues --    1.30556   1.36064   1.39226   1.47612   1.53180
 Alpha virt. eigenvalues --    1.53644   1.55519   1.60560   1.65093   1.68932
 Alpha virt. eigenvalues --    1.73742   1.77178   1.82285   1.82829   1.83019
 Alpha virt. eigenvalues --    1.88196   1.90925   1.97364   2.01785   2.08758
 Alpha virt. eigenvalues --    2.10658   2.13514   2.20210   2.28192   2.31818
 Alpha virt. eigenvalues --    2.34628   2.43521   2.47033   2.48531   2.53838
 Alpha virt. eigenvalues --    2.62914   2.64260   2.85595   2.88732   3.05819
 Alpha virt. eigenvalues --    3.14991   3.91452   4.19856   4.21842   4.27636
 Alpha virt. eigenvalues --    4.35732   4.54366
          Condensed to atoms (all electrons):
               1          2          3          4          5          6
     1  C    5.396622   0.091041  -0.067752   0.121058   0.002400  -0.018301
     2  C    0.091041   5.997241   0.053195  -0.146849  -0.030118  -0.108667
     3  C   -0.067752   0.053195   5.020098   0.037966   0.016403   0.470120
     4  O    0.121058  -0.146849   0.037966   8.229961   0.028486  -0.010517
     5  O    0.002400  -0.030118   0.016403   0.028486   8.305925  -0.001370
     6  O   -0.018301  -0.108667   0.470120  -0.010517  -0.001370   8.074755
     7  H    0.003974  -0.000883  -0.000225  -0.019312   0.174321  -0.000055
     8  H    0.403878  -0.080107   0.025004  -0.046825   0.001430  -0.000710
     9  H    0.388201  -0.022819  -0.028285  -0.031441  -0.001786   0.007914
    10  H    0.014347  -0.113599   0.383489  -0.008542   0.000597  -0.056701
    11  H   -0.045813   0.402966  -0.048377  -0.007095  -0.000191   0.006349
    12  H   -0.022618   0.371676  -0.031679   0.008355  -0.000771  -0.006378
               7          8          9         10         11         12
     1  C    0.003974   0.403878   0.388201   0.014347  -0.045813  -0.022618
     2  C   -0.000883  -0.080107  -0.022819  -0.113599   0.402966   0.371676
     3  C   -0.000225   0.025004  -0.028285   0.383489  -0.048377  -0.031679
     4  O   -0.019312  -0.046825  -0.031441  -0.008542  -0.007095   0.008355
     5  O    0.174321   0.001430  -0.001786   0.000597  -0.000191  -0.000771
     6  O   -0.000055  -0.000710   0.007914  -0.056701   0.006349  -0.006378
     7  H    0.380899   0.001400  -0.000428  -0.000005  -0.000015   0.000006
     8  H    0.001400   0.550010  -0.042777  -0.000202  -0.004398   0.000638
     9  H   -0.000428  -0.042777   0.495856   0.000378   0.003699  -0.001445
    10  H   -0.000005  -0.000202   0.000378   0.599920   0.003432   0.002184
    11  H   -0.000015  -0.004398   0.003699   0.003432   0.493154  -0.027780
    12  H    0.000006   0.000638  -0.001445   0.002184  -0.027780   0.475415
 Mulliken charges:
               1
     1  C   -0.267039
     2  C   -0.413078
     3  C    0.170042
     4  O   -0.155243
     5  O   -0.495325
     6  O   -0.356439
     7  H    0.460323
     8  H    0.192660
     9  H    0.232933
    10  H    0.174702
    11  H    0.224069
    12  H    0.232396
 Sum of Mulliken charges =  -0.00000
 Mulliken charges with hydrogens summed into heavy atoms:
               1
     1  C    0.158554
     2  C    0.043387
     3  C    0.344744
     4  O   -0.155243
     5  O   -0.035002
     6  O   -0.356439
 APT charges:
               1
     1  C   -0.755186
     2  C   -0.861814
     3  C   -0.269478
     4  O   -0.161637
     5  O   -0.761906
     6  O   -0.226130
     7  H    0.748804
     8  H    0.512562
     9  H    0.393440
    10  H    0.402645
    11  H    0.433060
    12  H    0.545640
 Sum of APT charges =  -0.00000
 APT charges with hydrogens summed into heavy atoms:
               1
     1  C    0.150815
     2  C    0.116886
     3  C    0.133167
     4  O   -0.161637
     5  O   -0.013102
     6  O   -0.226130
 Electronic spatial extent (au):  <R**2>=            634.0171
 Charge=              0.0000 electrons
 Dipole moment (field-independent basis, Debye):
    X=              1.2716    Y=              3.3822    Z=              2.1997  Tot=              4.2302
 Quadrupole moment (field-independent basis, Debye-Ang):
   XX=            -34.0214   YY=            -36.0427   ZZ=            -36.0029
   XY=             -0.6245   XZ=             -1.3767   YZ=             -2.5579
 Traceless Quadrupole moment (field-independent basis, Debye-Ang):
   XX=              1.3343   YY=             -0.6871   ZZ=             -0.6472
   XY=             -0.6245   XZ=             -1.3767   YZ=             -2.5579
 Octapole moment (field-independent basis, Debye-Ang**2):
  XXX=             38.3498  YYY=             -2.3442  ZZZ=             -2.3774  XYY=              4.8356
  XXY=             10.0553  XXZ=             11.4570  XZZ=              1.2171  YZZ=             -2.1683
  YYZ=              1.1258  XYZ=              2.8273
 Hexadecapole moment (field-independent basis, Debye-Ang**3):
 XXXX=           -395.5739 YYYY=           -197.4535 ZZZZ=           -103.5847 XXXY=            -22.8997
 XXXZ=             28.4319 YYYX=            -26.4301 YYYZ=            -11.8851 ZZZX=             20.2038
 ZZZY=             -7.9897 XXYY=           -120.6139 XXZZ=           -104.2673 YYZZ=            -50.2560
 XXYZ=             -7.7168 YYXZ=              2.7902 ZZXY=             -8.3020
 N-N= 2.407118982670D+02 E-N=-1.286171899092D+03  KE= 3.403380591424D+02
  Exact polarizability:   0.000   0.000   0.000   0.000   0.000   0.000
 Approx polarizability:  74.453  -3.310  64.559   3.657   4.483  68.596

 This type of calculation cannot be archived.


 LIFE IS SO UNCERTAIN - EAT DESSERT FIRST.
 Job cpu time:       0 days  6 hours  6 minutes 35.9 seconds.
 Elapsed time:       0 days  0 hours 23 minutes 29.4 seconds.
 File lengths (MBytes):  RWF=     28 Int=      0 D2E=      0 Chk=      4 Scr=      1
 Normal termination of Gaussian 16 at Wed Dec 23 22:40:19 2020.
