 Entering Gaussian System, Link 0=g16
 Initial command:
 /apps/cent7/gaussian/g16-B.01/g16-haswell/g16/l1.exe "/scratch/bell/zhao922/YARP/paper-example/KHP-network/pp_0/IRC-folder/Gau-36737.inp" -scrdir="/scratch/bell/zhao922/YARP/paper-example/KHP-network/pp_0/IRC-folder/"
 Entering Link 1 = /apps/cent7/gaussian/g16-B.01/g16-haswell/g16/l1.exe PID=     36739.
  
 Copyright (c) 1988-2017, Gaussian, Inc.  All Rights Reserved.
  
 This is part of the Gaussian(R) 16 program.  It is based on
 the Gaussian(R) 09 system (copyright 2009, Gaussian, Inc.),
 the Gaussian(R) 03 system (copyright 2003, Gaussian, Inc.),
 the Gaussian(R) 98 system (copyright 1998, Gaussian, Inc.),
 the Gaussian(R) 94 system (copyright 1995, Gaussian, Inc.),
 the Gaussian 92(TM) system (copyright 1992, Gaussian, Inc.),
 the Gaussian 90(TM) system (copyright 1990, Gaussian, Inc.),
 the Gaussian 88(TM) system (copyright 1988, Gaussian, Inc.),
 the Gaussian 86(TM) system (copyright 1986, Carnegie Mellon
 University), and the Gaussian 82(TM) system (copyright 1983,
 Carnegie Mellon University). Gaussian is a federally registered
 trademark of Gaussian, Inc.
  
 This software contains proprietary and confidential information,
 including trade secrets, belonging to Gaussian, Inc.
  
 This software is provided under written license and may be
 used, copied, transmitted, or stored only in accord with that
 written license.
  
 The following legend is applicable only to US Government
 contracts under FAR:
  
                    RESTRICTED RIGHTS LEGEND
  
 Use, reproduction and disclosure by the US Government is
 subject to restrictions as set forth in subparagraphs (a)
 and (c) of the Commercial Computer Software - Restricted
 Rights clause in FAR 52.227-19.
  
 Gaussian, Inc.
 340 Quinnipiac St., Bldg. 40, Wallingford CT 06492
  
  
 ---------------------------------------------------------------
 Warning -- This program may not be used in any manner that
 competes with the business of Gaussian, Inc. or will provide
 assistance to any competitor of Gaussian, Inc.  The licensee
 of this program is prohibited from giving any competitor of
 Gaussian, Inc. access to this program.  By using this program,
 the user acknowledges that Gaussian, Inc. is engaged in the
 business of creating and licensing software in the field of
 computational chemistry and represents and warrants to the
 licensee that it is not a competitor of Gaussian, Inc. and that
 it will not use this program in any manner prohibited above.
 ---------------------------------------------------------------
  

 Cite this work as:
 Gaussian 16, Revision B.01,
 M. J. Frisch, G. W. Trucks, H. B. Schlegel, G. E. Scuseria, 
 M. A. Robb, J. R. Cheeseman, G. Scalmani, V. Barone, 
 G. A. Petersson, H. Nakatsuji, X. Li, M. Caricato, A. V. Marenich, 
 J. Bloino, B. G. Janesko, R. Gomperts, B. Mennucci, H. P. Hratchian, 
 J. V. Ortiz, A. F. Izmaylov, J. L. Sonnenberg, D. Williams-Young, 
 F. Ding, F. Lipparini, F. Egidi, J. Goings, B. Peng, A. Petrone, 
 T. Henderson, D. Ranasinghe, V. G. Zakrzewski, J. Gao, N. Rega, 
 G. Zheng, W. Liang, M. Hada, M. Ehara, K. Toyota, R. Fukuda, 
 J. Hasegawa, M. Ishida, T. Nakajima, Y. Honda, O. Kitao, H. Nakai, 
 T. Vreven, K. Throssell, J. A. Montgomery, Jr., J. E. Peralta, 
 F. Ogliaro, M. J. Bearpark, J. J. Heyd, E. N. Brothers, K. N. Kudin, 
 V. N. Staroverov, T. A. Keith, R. Kobayashi, J. Normand, 
 K. Raghavachari, A. P. Rendell, J. C. Burant, S. S. Iyengar, 
 J. Tomasi, M. Cossi, J. M. Millam, M. Klene, C. Adamo, R. Cammi, 
 J. W. Ochterski, R. L. Martin, K. Morokuma, O. Farkas, 
 J. B. Foresman, and D. J. Fox, Gaussian, Inc., Wallingford CT, 2016.
 
 ******************************************
 Gaussian 16:  ES64L-G16RevB.01 20-Dec-2017
                23-Dec-2020 
 ******************************************
 %NProcShared=16
 Will use up to   16 processors via shared memory.
 %Mem=6GB
 ----------------------------------------------------------------------
 # B3LYP/6-31+G* IRC=(CALCALL, maxpoints=40, StepSize=15, maxcyc=100, R
 eport=Cartesians)
 ----------------------------------------------------------------------
 1/6=100,10=4,18=10,26=3,38=1,39=15,42=40,44=3,71=1,129=10,172=1/1,23;
 2/12=2,17=6,18=5,29=1,40=1/2;
 3/5=1,6=6,7=11,11=2,25=1,30=1,71=2,74=-5,140=1/1,2,3;
 4//1;
 5/5=2,38=5/2;
 8/6=4,10=90,11=11/1;
 11/6=1,8=1,9=11,15=111,16=1/1,2,10;
 10/6=1,13=1/2;
 6/7=2,8=2,9=2,10=2,18=1,28=1/1;
 7/10=1,25=1/1,2,3,16;
 1/6=100,10=4,18=10,26=3,39=15,42=40,44=3,71=1,129=10/23(2);
 2/29=1/2;
 99/5=20/99;
 2/29=1/2;
 3/5=1,6=6,7=11,11=2,25=1,30=1,71=2,74=-5,140=1/1,2,3;
 4/5=5,16=3,69=1/1;
 5/5=2,38=5/2;
 8/6=4,10=90,11=11/1;
 11/6=1,8=1,9=11,15=111,16=1/1,2,10;
 10/6=1,13=1/2;
 7/10=1,25=1/1,2,3,16;
 1/6=100,10=4,18=10,26=3,39=15,42=40,44=3,71=1,129=10/23(-8);
 2/29=1/2;
 6/7=2,8=2,9=2,10=2,18=1,19=2,28=1/1;
 99/5=20/99;
 ----------
 pp_9_1 IRC
 ----------
 Symbolic Z-matrix:
 Charge =  0 Multiplicity = 1
 C                    -1.92807  -0.84449   0.38036 
 C                    -0.19457  -0.2867   -0.6576 
 C                     0.83744  -1.07449   0.00717 
 O                    -0.22391   0.96763  -0.82435 
 O                    -0.00474   1.78868   0.59648 
 O                     1.95914  -0.63703   0.21454 
 H                     0.96995   1.84327   0.54876 
 H                    -2.85878  -0.60388  -0.13831 
 H                    -1.87552  -1.87129   0.73784 
 H                     0.5646   -2.12254   0.2393 
 H                    -1.67593  -0.09718   1.12799 
 H                    -1.25713  -0.8685   -0.78852 
 
 IRC-IRC-IRC-IRC-IRC-IRC-IRC-IRC-IRC-IRC-IRC-IRC-IRC-IRC-IRC-IRC-IRC-IRC
 ------------------------------------------------------------------------
 INPUT DATA FOR L123
 ------------------------------------------------------------------------
 GENERAL PARAMETERS:
 Follow reaction path in both directions.
 Maximum points per path      =  40
 Step size                    =   0.150 bohr
 Integration scheme           = HPC                                 
    Redo corrector integration= Yes                                 
    DWI Weight Power          =  2
    DWI will use Hessian update vectors when possible.
    Max correction cycles     = 100
 Initial Hessian              = CalcFC
 Hessian evaluation           = Analytic at all predictor steps
                              = Update at all corrector steps
 Hessian updating method      = Bofill                              
 ------------------------------------------------------------------------
 IRC-IRC-IRC-IRC-IRC-IRC-IRC-IRC-IRC-IRC-IRC-IRC-IRC-IRC-IRC-IRC-IRC-IRC
                          Input orientation:                          
 ---------------------------------------------------------------------
 Center     Atomic      Atomic             Coordinates (Angstroms)
 Number     Number       Type             X           Y           Z
 ---------------------------------------------------------------------
      1          6           0       -1.928067   -0.844490    0.380356
      2          6           0       -0.194567   -0.286698   -0.657603
      3          6           0        0.837438   -1.074495    0.007172
      4          8           0       -0.223909    0.967626   -0.824352
      5          8           0       -0.004738    1.788679    0.596484
      6          8           0        1.959144   -0.637029    0.214543
      7          1           0        0.969954    1.843270    0.548758
      8          1           0       -2.858777   -0.603879   -0.138312
      9          1           0       -1.875515   -1.871291    0.737841
     10          1           0        0.564595   -2.122535    0.239300
     11          1           0       -1.675931   -0.097183    1.127985
     12          1           0       -1.257126   -0.868500   -0.788523
 ---------------------------------------------------------------------
                    Distance matrix (angstroms):
                    1          2          3          4          5
     1  C    0.000000
     2  C    2.096071   0.000000
     3  C    2.800033   1.458624   0.000000
     4  O    2.763918   1.265699   2.447069   0.000000
     5  O    3.267948   2.432274   3.042090   1.655578   0.000000
     6  O    3.896273   2.349860   1.221722   2.901713   3.144324
     7  H    3.956127   2.710753   2.970560   2.019280   0.977386
     8  H    1.092305   2.732816   3.728894   3.143693   3.796024
     9  H    1.088521   2.698849   2.920424   3.636990   4.112805
    10  H    2.804757   2.179693   1.107571   3.361873   3.968541
    11  H    1.086733   2.327806   2.920340   2.655900   2.575239
    12  H    1.347968   1.218468   2.250058   2.107173   3.247664
                    6          7          8          9         10
     6  O    0.000000
     7  H    2.691111   0.000000
     8  H    4.830939   4.595627   0.000000
     9  H    4.062247   4.682992   1.827780   0.000000
    10  H    2.037672   3.998461   3.764091   2.503159   0.000000
    11  H    3.786764   3.331902   1.805374   1.827431   3.148296
    12  H    3.376998   3.755250   1.748738   1.928155   2.438789
                   11         12
    11  H    0.000000
    12  H    2.107921   0.000000
 Symmetry turned off by external request.
 Stoichiometry    C3H6O3
 Framework group  C1[X(C3H6O3)]
 Deg. of freedom    30
 Full point group                 C1      NOp   1
 Rotational constants (GHZ):           3.7849845           3.1239840           2.0946044
 Standard basis: 6-31+G(d) (6D, 7F)
   126 basis functions,   216 primitive gaussians,   126 cartesian basis functions
    24 alpha electrons       24 beta electrons
       nuclear repulsion energy       237.5163492112 Hartrees.
 NAtoms=   12 NActive=   12 NUniq=   12 SFac= 1.00D+00 NAtFMM=   60 NAOKFM=F Big=F
 Integral buffers will be    131072 words long.
 Raffenetti 2 integral format.
 Two-electron integral symmetry is turned off.
 One-electron integrals computed using PRISM.
 NBasis=   126 RedAO= T EigKep=  9.44D-05  NBF=   126
 NBsUse=   126 1.00D-06 EigRej= -1.00D+00 NBFU=   126
 ExpMin= 4.38D-02 ExpMax= 5.48D+03 ExpMxC= 8.25D+02 IAcc=3 IRadAn=         5 AccDes= 0.00D+00
 Harris functional with IExCor=  402 and IRadAn=       5 diagonalized for initial guess.
 HarFok:  IExCor=  402 AccDes= 0.00D+00 IRadAn=         5 IDoV= 1 UseB2=F ITyADJ=14
 ICtDFT=  3500011 ScaDFX=  1.000000  1.000000  1.000000  1.000000
 FoFCou: FMM=F IPFlag=           0 FMFlag=      100000 FMFlg1=           0
         NFxFlg=           0 DoJE=T BraDBF=F KetDBF=T FulRan=T
         wScrn=  0.000000 ICntrl=       500 IOpCl=  0 I1Cent=   200000004 NGrid=           0
         NMat0=    1 NMatS0=      1 NMatT0=    0 NMatD0=    1 NMtDS0=    0 NMtDT0=    0
 Symmetry not used in FoFCou.
 Keep R1 ints in memory in canonical form, NReq=47237219.
 Requested convergence on RMS density matrix=1.00D-08 within 128 cycles.
 Requested convergence on MAX density matrix=1.00D-06.
 Requested convergence on             energy=1.00D-06.
 No special actions if energy rises.
 SCF Done:  E(RB3LYP) =  -343.392774942     A.U. after   14 cycles
            NFock= 14  Conv=0.41D-08     -V/T= 2.0092
 DoSCS=F DFT=T ScalE2(SS,OS)=  1.000000  1.000000
 Range of M.O.s used for correlation:     1   126
 NBasis=   126 NAE=    24 NBE=    24 NFC=     0 NFV=     0
 NROrb=    126 NOA=    24 NOB=    24 NVA=   102 NVB=   102

 **** Warning!!: The largest alpha MO coefficient is  0.29721579D+02

 Symmetrizing basis deriv contribution to polar:
 IMax=3 JMax=2 DiffMx= 0.00D+00
 G2DrvN: will do    13 centers at a time, making    1 passes.
 Calling FoFCou, ICntrl=  3107 FMM=F I1Cent=   0 AccDes= 0.00D+00.
 End of G2Drv F.D. properties file   721 does not exist.
 End of G2Drv F.D. properties file   722 does not exist.
 End of G2Drv F.D. properties file   788 does not exist.
          IDoAtm=111111111111
          Differentiating once with respect to nuclear coordinates.
 Keep R1 ints in memory in canonical form, NReq=47193234.
          There are    39 degrees of freedom in the 1st order CPHF.  IDoFFX=6 NUNeed=     0.
     33 vectors produced by pass  0 Test12= 6.28D-15 2.56D-09 XBig12= 3.21D-01 3.14D-01.
 AX will form    33 AO Fock derivatives at one time.
     33 vectors produced by pass  1 Test12= 6.28D-15 2.56D-09 XBig12= 3.43D-02 3.68D-02.
     33 vectors produced by pass  2 Test12= 6.28D-15 2.56D-09 XBig12= 3.96D-04 3.72D-03.
     33 vectors produced by pass  3 Test12= 6.28D-15 2.56D-09 XBig12= 2.73D-06 3.16D-04.
     33 vectors produced by pass  4 Test12= 6.28D-15 2.56D-09 XBig12= 5.09D-09 9.08D-06.
     29 vectors produced by pass  5 Test12= 6.28D-15 2.56D-09 XBig12= 6.35D-12 3.57D-07.
      8 vectors produced by pass  6 Test12= 6.28D-15 2.56D-09 XBig12= 5.28D-15 7.99D-09.
 InvSVY:  IOpt=1 It=  1 EMax= 1.78D-15
 Solved reduced A of dimension   202 with    33 vectors.
 End of Minotr F.D. properties file   721 does not exist.
 End of Minotr F.D. properties file   722 does not exist.
 End of Minotr F.D. properties file   788 does not exist.

 **********************************************************************

            Population analysis using the SCF Density.

 **********************************************************************

 Alpha  occ. eigenvalues --  -19.25874 -19.19001 -19.17231 -10.30273 -10.29704
 Alpha  occ. eigenvalues --  -10.25913  -1.12305  -1.06185  -0.96167  -0.79442
 Alpha  occ. eigenvalues --   -0.71173  -0.59051  -0.54791  -0.52119  -0.49758
 Alpha  occ. eigenvalues --   -0.47480  -0.45682  -0.44658  -0.43487  -0.39819
 Alpha  occ. eigenvalues --   -0.35681  -0.30662  -0.28460  -0.25491
 Alpha virt. eigenvalues --   -0.09651  -0.08146  -0.00935   0.01729   0.02530
 Alpha virt. eigenvalues --    0.03088   0.04141   0.06327   0.06662   0.06941
 Alpha virt. eigenvalues --    0.08431   0.08779   0.09907   0.11888   0.13468
 Alpha virt. eigenvalues --    0.16166   0.16781   0.17120   0.19170   0.19745
 Alpha virt. eigenvalues --    0.20538   0.21388   0.23239   0.25153   0.26590
 Alpha virt. eigenvalues --    0.27097   0.27417   0.28588   0.30770   0.32102
 Alpha virt. eigenvalues --    0.33336   0.34508   0.37375   0.38715   0.42238
 Alpha virt. eigenvalues --    0.49169   0.59080   0.62238   0.64347   0.67459
 Alpha virt. eigenvalues --    0.73188   0.76280   0.78391   0.80271   0.84647
 Alpha virt. eigenvalues --    0.85686   0.93359   0.93745   0.97523   1.02159
 Alpha virt. eigenvalues --    1.05742   1.07177   1.11165   1.14649   1.16396
 Alpha virt. eigenvalues --    1.20148   1.21644   1.23170   1.25245   1.27562
 Alpha virt. eigenvalues --    1.28186   1.31301   1.34041   1.40682   1.50598
 Alpha virt. eigenvalues --    1.51263   1.55950   1.57301   1.58261   1.61069
 Alpha virt. eigenvalues --    1.68489   1.70256   1.75449   1.78584   1.81726
 Alpha virt. eigenvalues --    1.82063   1.85610   1.91591   2.01332   2.03258
 Alpha virt. eigenvalues --    2.07887   2.13548   2.15845   2.20610   2.22648
 Alpha virt. eigenvalues --    2.24370   2.34994   2.45313   2.52125   2.53258
 Alpha virt. eigenvalues --    2.64269   2.65499   2.85471   2.99111   3.02827
 Alpha virt. eigenvalues --    3.16020   4.00332   4.14500   4.18655   4.23607
 Alpha virt. eigenvalues --    4.34743   4.50900
          Condensed to atoms (all electrons):
               1          2          3          4          5          6
     1  C    5.948754  -0.255492  -0.008819  -0.044679  -0.049560   0.006139
     2  C   -0.255492   6.434430  -0.256682   0.367538   0.048870  -0.202293
     3  C   -0.008819  -0.256682   5.255869  -0.070645  -0.066616   0.481386
     4  O   -0.044679   0.367538  -0.070645   7.848603   0.029852   0.020258
     5  O   -0.049560   0.048870  -0.066616   0.029852   8.381406   0.011215
     6  O    0.006139  -0.202293   0.481386   0.020258   0.011215   8.154074
     7  H    0.002991  -0.018347   0.013277  -0.001707   0.186231   0.004798
     8  H    0.344757  -0.007021   0.005261   0.001065   0.000443  -0.000137
     9  H    0.335936   0.006980  -0.003986   0.004055   0.000310  -0.000089
    10  H    0.026280  -0.210955   0.441192   0.007427  -0.000227  -0.048762
    11  H    0.335916   0.034690  -0.024323  -0.010100   0.008597   0.000414
    12  H    0.155524   0.069226   0.020850  -0.035259   0.010302   0.007335
               7          8          9         10         11         12
     1  C    0.002991   0.344757   0.335936   0.026280   0.335916   0.155524
     2  C   -0.018347  -0.007021   0.006980  -0.210955   0.034690   0.069226
     3  C    0.013277   0.005261  -0.003986   0.441192  -0.024323   0.020850
     4  O   -0.001707   0.001065   0.004055   0.007427  -0.010100  -0.035259
     5  O    0.186231   0.000443   0.000310  -0.000227   0.008597   0.010302
     6  O    0.004798  -0.000137  -0.000089  -0.048762   0.000414   0.007335
     7  H    0.347451   0.000003  -0.000005   0.000066  -0.000264  -0.000134
     8  H    0.000003   0.455450  -0.021793  -0.000171  -0.018640  -0.014752
     9  H   -0.000005  -0.021793   0.463823   0.000311  -0.018273  -0.013171
    10  H    0.000066  -0.000171   0.000311   0.615412   0.000092   0.010082
    11  H   -0.000264  -0.018640  -0.018273   0.000092   0.393323  -0.007065
    12  H   -0.000134  -0.014752  -0.013171   0.010082  -0.007065   0.522006
 Mulliken charges:
               1
     1  C   -0.797745
     2  C   -0.010944
     3  C    0.213237
     4  O   -0.116409
     5  O   -0.560823
     6  O   -0.434337
     7  H    0.465640
     8  H    0.255535
     9  H    0.245902
    10  H    0.159255
    11  H    0.305631
    12  H    0.275058
 Sum of Mulliken charges =  -0.00000
 Mulliken charges with hydrogens summed into heavy atoms:
               1
     1  C    0.009323
     2  C    0.264114
     3  C    0.372492
     4  O   -0.116409
     5  O   -0.095183
     6  O   -0.434337
 APT charges:
               1
     1  C   -1.354957
     2  C   -0.168691
     3  C   -0.225448
     4  O   -0.121603
     5  O   -0.678581
     6  O   -0.292468
     7  H    0.597396
     8  H    0.589516
     9  H    0.502918
    10  H    0.443787
    11  H    0.313021
    12  H    0.395112
 Sum of APT charges =  -0.00000
 APT charges with hydrogens summed into heavy atoms:
               1
     1  C    0.050497
     2  C    0.226420
     3  C    0.218339
     4  O   -0.121603
     5  O   -0.081185
     6  O   -0.292468
 Electronic spatial extent (au):  <R**2>=            620.8099
 Charge=             -0.0000 electrons
 Dipole moment (field-independent basis, Debye):
    X=             -3.1865    Y=             -2.9967    Z=              0.2341  Tot=              4.3805
 Quadrupole moment (field-independent basis, Debye-Ang):
   XX=            -36.7075   YY=            -36.5436   ZZ=            -38.0131
   XY=              6.3829   XZ=             -0.1636   YZ=             -0.0420
 Traceless Quadrupole moment (field-independent basis, Debye-Ang):
   XX=              0.3805   YY=              0.5444   ZZ=             -0.9250
   XY=              6.3829   XZ=             -0.1636   YZ=             -0.0420
 Octapole moment (field-independent basis, Debye-Ang**2):
  XXX=            -19.5878  YYY=             -4.4738  ZZZ=              2.8878  XYY=              6.7687
  XXY=              6.9180  XXZ=             -2.0050  XZZ=              1.6259  YZZ=              1.6853
  YYZ=              1.4666  XYZ=              2.4974
 Hexadecapole moment (field-independent basis, Debye-Ang**3):
 XXXX=           -386.9090 YYYY=           -305.8775 ZZZZ=           -107.3954 XXXY=             17.2748
 XXXZ=              3.8751 YYYX=             13.8465 YYYZ=             -5.5085 ZZZX=              1.5965
 ZZZY=             -1.0861 XXYY=           -107.0868 XXZZ=            -79.1705 YYZZ=            -69.5960
 XXYZ=              4.6711 YYXZ=              2.6489 ZZXY=              1.1440
 N-N= 2.375163492112D+02 E-N=-1.279100340804D+03  KE= 3.402753472839D+02
  Exact polarizability:   0.000   0.000   0.000   0.000   0.000   0.000
 Approx polarizability: 128.839  21.472 129.839  -1.071  16.303  76.065
 Calling FoFJK, ICntrl=    100127 FMM=F ISym2X=0 I1Cent= 0 IOpClX= 0 NMat=1 NMatS=1 NMatT=0.
 -------------------------------------------------------------------
 Center     Atomic                   Forces (Hartrees/Bohr)
 Number     Number              X              Y              Z
 -------------------------------------------------------------------
      1        6           0.000001300    0.000002473    0.000002426
      2        6           0.000000165    0.000000234   -0.000000125
      3        6           0.000000554    0.000000911   -0.000000096
      4        8          -0.000000222    0.000000271    0.000000050
      5        8          -0.000000924    0.000000065    0.000000620
      6        8          -0.000000068    0.000000495    0.000000109
      7        1          -0.000000351    0.000000375    0.000000451
      8        1           0.000000242   -0.000000695   -0.000000250
      9        1           0.000000341   -0.000000488   -0.000000323
     10        1           0.000000407   -0.000000149   -0.000000147
     11        1          -0.000001401   -0.000003335   -0.000002657
     12        1          -0.000000041   -0.000000158   -0.000000058
 -------------------------------------------------------------------
 Cartesian Forces:  Max     0.000003335 RMS     0.000001034
 IRC-IRC-IRC-IRC-IRC-IRC-IRC-IRC-IRC-IRC-IRC-IRC-IRC-IRC-IRC-IRC-IRC-IRC
          ******** Start new reaction path calculation ********
 Supplied step size of   0.1500 bohr.
    Integration on MW PES will use step size of   0.1821 sqrt(amu)*bohr.
 Point Number:   0          Path Number:   1
 Calculating another point on the path.
 IRC-IRC-IRC-IRC-IRC-IRC-IRC-IRC-IRC-IRC-IRC-IRC-IRC-IRC-IRC-IRC-IRC-IRC
                          Input orientation:                          
 ---------------------------------------------------------------------
 Center     Atomic      Atomic             Coordinates (Angstroms)
 Number     Number       Type             X           Y           Z
 ---------------------------------------------------------------------
      1          6           0       -1.991186   -0.882401    0.402024
      2          6           0       -0.271743   -0.333167   -0.631458
      3          6           0        0.770288   -1.115494    0.024285
      4          8           0       -0.290120    0.930742   -0.803549
      5          8           0       -0.072868    1.745378    0.612204
      6          8           0        1.891429   -0.677573    0.234219
      7          1           0        0.902090    1.799601    0.565440
      8          1           0       -2.911245   -0.643571   -0.135545
      9          1           0       -1.934881   -1.912397    0.749045
     10          1           0        0.499690   -2.164648    0.257175
     11          1           0       -1.752980   -0.138596    1.157239
     12          1           0       -1.287535   -0.903238   -0.831113
 ---------------------------------------------------------------------
                    Distance matrix (angstroms):
                    1          2          3          4          5
     1  C    0.000000
     2  C    2.079959   0.000000
     3  C    2.796919   1.458720   0.000000
     4  O    2.763064   1.275704   2.448848   0.000000
     5  O    3.260268   2.430349   3.039926   1.647782   0.000000
     6  O    3.891634   2.355276   1.221804   2.902205   3.141978
     7  H    3.948530   2.712775   2.967828   2.012563   0.977583
     8  H    1.092029   2.703563   3.715096   3.129695   3.784520
     9  H    1.088341   2.676898   2.911746   3.633074   4.106719
    10  H    2.805282   2.176948   1.108235   3.366062   3.967641
    11  H    1.086434   2.330528   2.933393   2.669856   2.582479
    12  H    1.419925   1.181811   2.238614   2.087842   3.251730
                    6          7          8          9         10
     6  O    0.000000
     7  H    2.687916   0.000000
     8  H    4.817007   4.582793   0.000000
     9  H    4.053453   4.675579   1.829127   0.000000
    10  H    2.036874   3.996527   3.755314   2.496538   0.000000
    11  H    3.797917   3.340094   1.807725   1.829229   3.160621
    12  H    3.360308   3.748354   1.785406   1.983521   2.443296
                   11         12
    11  H    0.000000
    12  H    2.180564   0.000000
 Symmetry turned off by external request.
 Stoichiometry    C3H6O3
 Framework group  C1[X(C3H6O3)]
 Deg. of freedom    30
 Full point group                 C1      NOp   1
 Rotational constants (GHZ):           3.7915982           3.1303119           2.0980937
 Standard basis: 6-31+G(d) (6D, 7F)
   126 basis functions,   216 primitive gaussians,   126 cartesian basis functions
    24 alpha electrons       24 beta electrons
       nuclear repulsion energy       237.5513306908 Hartrees.
 NAtoms=   12 NActive=   12 NUniq=   12 SFac= 1.00D+00 NAtFMM=   60 NAOKFM=F Big=F
 Integral buffers will be    131072 words long.
 Raffenetti 2 integral format.
 Two-electron integral symmetry is turned off.
 One-electron integrals computed using PRISM.
 NBasis=   126 RedAO= T EigKep=  9.33D-05  NBF=   126
 NBsUse=   126 1.00D-06 EigRej= -1.00D+00 NBFU=   126
 Initial guess from the checkpoint file:  "/scratch/bell/zhao922/YARP/paper-example/KHP-network/pp_0/IRC-folder/Gau-36739.chk"
 B after Tr=    -0.126500   -0.077196    0.034422
         Rot=    1.000000   -0.000272    0.000425   -0.000089 Ang=  -0.06 deg.
 ExpMin= 4.38D-02 ExpMax= 5.48D+03 ExpMxC= 8.25D+02 IAcc=3 IRadAn=         5 AccDes= 0.00D+00
 Harris functional with IExCor=  402 and IRadAn=       5 diagonalized for initial guess.
 HarFok:  IExCor=  402 AccDes= 0.00D+00 IRadAn=         5 IDoV= 1 UseB2=F ITyADJ=14
 ICtDFT=  3500011 ScaDFX=  1.000000  1.000000  1.000000  1.000000
 FoFCou: FMM=F IPFlag=           0 FMFlag=      100000 FMFlg1=           0
         NFxFlg=           0 DoJE=T BraDBF=F KetDBF=T FulRan=T
         wScrn=  0.000000 ICntrl=       500 IOpCl=  0 I1Cent=   200000004 NGrid=           0
         NMat0=    1 NMatS0=      1 NMatT0=    0 NMatD0=    1 NMtDS0=    0 NMtDT0=    0
 Symmetry not used in FoFCou.
 Keep R1 ints in memory in canonical form, NReq=47237219.
 Requested convergence on RMS density matrix=1.00D-08 within 128 cycles.
 Requested convergence on MAX density matrix=1.00D-06.
 Requested convergence on             energy=1.00D-06.
 No special actions if energy rises.
 SCF Done:  E(RB3LYP) =  -343.393505033     A.U. after   13 cycles
            NFock= 13  Conv=0.48D-08     -V/T= 2.0093
 DoSCS=F DFT=T ScalE2(SS,OS)=  1.000000  1.000000
 Range of M.O.s used for correlation:     1   126
 NBasis=   126 NAE=    24 NBE=    24 NFC=     0 NFV=     0
 NROrb=    126 NOA=    24 NOB=    24 NVA=   102 NVB=   102

 **** Warning!!: The largest alpha MO coefficient is  0.30348714D+02

 Symmetrizing basis deriv contribution to polar:
 IMax=3 JMax=2 DiffMx= 0.00D+00
 G2DrvN: will do    13 centers at a time, making    1 passes.
 Calling FoFCou, ICntrl=  3107 FMM=F I1Cent=   0 AccDes= 0.00D+00.
 End of G2Drv F.D. properties file   721 does not exist.
 End of G2Drv F.D. properties file   722 does not exist.
 End of G2Drv F.D. properties file   788 does not exist.
          IDoAtm=111111111111
          Differentiating once with respect to nuclear coordinates.
 Keep R1 ints in memory in canonical form, NReq=47193234.
          There are    39 degrees of freedom in the 1st order CPHF.  IDoFFX=6 NUNeed=     0.
     33 vectors produced by pass  0 Test12= 6.28D-15 2.56D-09 XBig12= 3.08D-01 2.96D-01.
 AX will form    33 AO Fock derivatives at one time.
     33 vectors produced by pass  1 Test12= 6.28D-15 2.56D-09 XBig12= 3.27D-02 3.08D-02.
     33 vectors produced by pass  2 Test12= 6.28D-15 2.56D-09 XBig12= 3.94D-04 3.31D-03.
     33 vectors produced by pass  3 Test12= 6.28D-15 2.56D-09 XBig12= 2.65D-06 2.75D-04.
     33 vectors produced by pass  4 Test12= 6.28D-15 2.56D-09 XBig12= 4.83D-09 8.40D-06.
     29 vectors produced by pass  5 Test12= 6.28D-15 2.56D-09 XBig12= 5.59D-12 3.51D-07.
      7 vectors produced by pass  6 Test12= 6.28D-15 2.56D-09 XBig12= 4.48D-15 7.59D-09.
 InvSVY:  IOpt=1 It=  1 EMax= 2.33D-15
 Solved reduced A of dimension   201 with    33 vectors.
 End of Minotr F.D. properties file   721 does not exist.
 End of Minotr F.D. properties file   722 does not exist.
 End of Minotr F.D. properties file   788 does not exist.
 Calling FoFJK, ICntrl=    100127 FMM=F ISym2X=0 I1Cent= 0 IOpClX= 0 NMat=1 NMatS=1 NMatT=0.
 -------------------------------------------------------------------
 Center     Atomic                   Forces (Hartrees/Bohr)
 Number     Number              X              Y              Z
 -------------------------------------------------------------------
      1        6           0.003861804    0.002965237    0.003100164
      2        6          -0.008676460   -0.004757427    0.006825991
      3        6           0.000459012   -0.000368208   -0.001716610
      4        8           0.001603464    0.005055910    0.002240272
      5        8          -0.000841632   -0.003115414   -0.004225991
      6        8          -0.000420462    0.000448089    0.000762857
      7        1          -0.000011137   -0.000209165   -0.000185011
      8        1           0.001224737    0.000082604   -0.001068839
      9        1           0.000542051    0.000023901   -0.000490785
     10        1           0.000216249   -0.000044609   -0.000090811
     11        1          -0.000958193   -0.000181667    0.000876002
     12        1           0.003000568    0.000100751   -0.006027240
 -------------------------------------------------------------------
 Cartesian Forces:  Max     0.008676460 RMS     0.002857167
 IRC-IRC-IRC-IRC-IRC-IRC-IRC-IRC-IRC-IRC-IRC-IRC-IRC-IRC-IRC-IRC-IRC-IRC
 Pt  1 Step number   1 out of a maximum of 100
 Modified Bulirsch-Stoer Extrapolation Cycles:
    EPS =    0.000010000000000
      PEZero:  N= 2 I= 1 D=  4.74D-04 Err=  9.98D-04
      PEZero:  N= 3 I= 2 D=  4.74D-04 Err=  6.65D-04
      PEZero:  N= 3 I= 1 D=  9.48D-04 Err=  6.84D-08
 Maximum DWI energy   std dev =  0.000008114 at pt    46
 Maximum DWI gradient std dev =  0.033159300 at pt    35
 CORRECTOR INTEGRATION CONVERGENCE:
   Recorrection delta-x convergence threshold:    0.010000
   Delta-x Convergence Met
 Point Number:   1          Path Number:   1
   CHANGE IN THE REACTION COORDINATE =    0.18198
   NET REACTION COORDINATE UP TO THIS POINT =    0.18198
  # OF POINTS ALONG THE PATH =   1
  # OF STEPS =   1

 Calculating another point on the path.
 IRC-IRC-IRC-IRC-IRC-IRC-IRC-IRC-IRC-IRC-IRC-IRC-IRC-IRC-IRC-IRC-IRC-IRC
                          Input orientation:                          
 ---------------------------------------------------------------------
 Center     Atomic      Atomic             Coordinates (Angstroms)
 Number     Number       Type             X           Y           Z
 ---------------------------------------------------------------------
      1          6           0       -1.987620   -0.879729    0.405067
      2          6           0       -0.280264   -0.338012   -0.625108
      3          6           0        0.770788   -1.115832    0.022633
      4          8           0       -0.288937    0.934509   -0.802053
      5          8           0       -0.073466    1.743188    0.609259
      6          8           0        1.891157   -0.677258    0.234782
      7          1           0        0.901792    1.797351    0.563261
      8          1           0       -2.898378   -0.642413   -0.147988
      9          1           0       -1.929070   -1.912275    0.743817
     10          1           0        0.501889   -2.165573    0.256405
     11          1           0       -1.763439   -0.140002    1.167940
     12          1           0       -1.249564   -0.900059   -0.899305
 ---------------------------------------------------------------------
                    Distance matrix (angstroms):
                    1          2          3          4          5
     1  C    0.000000
     2  C    2.066346   0.000000
     3  C    2.794784   1.459206   0.000000
     4  O    2.762991   1.284793   2.450923   0.000000
     5  O    3.253517   2.428543   3.038238   1.640789   0.000000
     6  O    3.887789   2.359993   1.221712   2.902694   3.139831
     7  H    3.942142   2.714636   2.965818   2.006593   0.977843
     8  H    1.091636   2.678587   3.703514   3.118280   3.774208
     9  H    1.088270   2.659102   2.905798   3.630968   4.101680
    10  H    2.805914   2.174583   1.108563   3.369903   3.966605
    11  H    1.086014   2.335388   2.947250   2.685070   2.591243
    12  H    1.498842   1.153527   2.231222   2.073138   3.262780
                    6          7          8          9         10
     6  O    0.000000
     7  H    2.685225   0.000000
     8  H    4.804932   4.571610   0.000000
     9  H    4.047038   4.669872   1.829597   0.000000
    10  H    2.036078   3.994853   3.747715   2.492247   0.000000
    11  H    3.809921   3.349990   1.808914   1.829826   3.172625
    12  H    3.346628   3.747460   1.830149   2.046011   2.450465
                   11         12
    11  H    0.000000
    12  H    2.261693   0.000000
 Symmetry turned off by external request.
 Stoichiometry    C3H6O3
 Framework group  C1[X(C3H6O3)]
 Deg. of freedom    30
 Full point group                 C1      NOp   1
 Rotational constants (GHZ):           3.7957858           3.1346081           2.1009094
 Standard basis: 6-31+G(d) (6D, 7F)
   126 basis functions,   216 primitive gaussians,   126 cartesian basis functions
    24 alpha electrons       24 beta electrons
       nuclear repulsion energy       237.5361410077 Hartrees.
 NAtoms=   12 NActive=   12 NUniq=   12 SFac= 1.00D+00 NAtFMM=   60 NAOKFM=F Big=F
 Integral buffers will be    131072 words long.
 Raffenetti 2 integral format.
 Two-electron integral symmetry is turned off.
 One-electron integrals computed using PRISM.
 NBasis=   126 RedAO= T EigKep=  9.22D-05  NBF=   126
 NBsUse=   126 1.00D-06 EigRej= -1.00D+00 NBFU=   126
 Initial guess from the checkpoint file:  "/scratch/bell/zhao922/YARP/paper-example/KHP-network/pp_0/IRC-folder/Gau-36739.chk"
 B after Tr=     0.000954    0.000038   -0.001381
         Rot=    1.000000   -0.000259    0.000413   -0.000088 Ang=  -0.06 deg.
 ExpMin= 4.38D-02 ExpMax= 5.48D+03 ExpMxC= 8.25D+02 IAcc=3 IRadAn=         5 AccDes= 0.00D+00
 Harris functional with IExCor=  402 and IRadAn=       5 diagonalized for initial guess.
 HarFok:  IExCor=  402 AccDes= 0.00D+00 IRadAn=         5 IDoV= 1 UseB2=F ITyADJ=14
 ICtDFT=  3500011 ScaDFX=  1.000000  1.000000  1.000000  1.000000
 FoFCou: FMM=F IPFlag=           0 FMFlag=      100000 FMFlg1=           0
         NFxFlg=           0 DoJE=T BraDBF=F KetDBF=T FulRan=T
         wScrn=  0.000000 ICntrl=       500 IOpCl=  0 I1Cent=   200000004 NGrid=           0
         NMat0=    1 NMatS0=      1 NMatT0=    0 NMatD0=    1 NMtDS0=    0 NMtDT0=    0
 Symmetry not used in FoFCou.
 Keep R1 ints in memory in canonical form, NReq=47237219.
 Requested convergence on RMS density matrix=1.00D-08 within 128 cycles.
 Requested convergence on MAX density matrix=1.00D-06.
 Requested convergence on             energy=1.00D-06.
 No special actions if energy rises.
 SCF Done:  E(RB3LYP) =  -343.395832245     A.U. after   13 cycles
            NFock= 13  Conv=0.46D-08     -V/T= 2.0093
 DoSCS=F DFT=T ScalE2(SS,OS)=  1.000000  1.000000
 Range of M.O.s used for correlation:     1   126
 NBasis=   126 NAE=    24 NBE=    24 NFC=     0 NFV=     0
 NROrb=    126 NOA=    24 NOB=    24 NVA=   102 NVB=   102

 **** Warning!!: The largest alpha MO coefficient is  0.30880702D+02

 Symmetrizing basis deriv contribution to polar:
 IMax=3 JMax=2 DiffMx= 0.00D+00
 G2DrvN: will do    13 centers at a time, making    1 passes.
 Calling FoFCou, ICntrl=  3107 FMM=F I1Cent=   0 AccDes= 0.00D+00.
 End of G2Drv F.D. properties file   721 does not exist.
 End of G2Drv F.D. properties file   722 does not exist.
 End of G2Drv F.D. properties file   788 does not exist.
          IDoAtm=111111111111
          Differentiating once with respect to nuclear coordinates.
 Keep R1 ints in memory in canonical form, NReq=47193234.
          There are    39 degrees of freedom in the 1st order CPHF.  IDoFFX=6 NUNeed=     0.
     33 vectors produced by pass  0 Test12= 6.28D-15 2.56D-09 XBig12= 2.94D-01 2.69D-01.
 AX will form    33 AO Fock derivatives at one time.
     33 vectors produced by pass  1 Test12= 6.28D-15 2.56D-09 XBig12= 3.18D-02 3.15D-02.
     33 vectors produced by pass  2 Test12= 6.28D-15 2.56D-09 XBig12= 4.01D-04 3.05D-03.
     33 vectors produced by pass  3 Test12= 6.28D-15 2.56D-09 XBig12= 2.52D-06 2.77D-04.
     33 vectors produced by pass  4 Test12= 6.28D-15 2.56D-09 XBig12= 4.15D-09 7.44D-06.
     29 vectors produced by pass  5 Test12= 6.28D-15 2.56D-09 XBig12= 4.35D-12 3.02D-07.
      7 vectors produced by pass  6 Test12= 6.28D-15 2.56D-09 XBig12= 3.51D-15 8.13D-09.
 InvSVY:  IOpt=1 It=  1 EMax= 1.78D-15
 Solved reduced A of dimension   201 with    33 vectors.
 End of Minotr F.D. properties file   721 does not exist.
 End of Minotr F.D. properties file   722 does not exist.
 End of Minotr F.D. properties file   788 does not exist.
 Calling FoFJK, ICntrl=    100127 FMM=F ISym2X=0 I1Cent= 0 IOpClX= 0 NMat=1 NMatS=1 NMatT=0.
 -------------------------------------------------------------------
 Center     Atomic                   Forces (Hartrees/Bohr)
 Number     Number              X              Y              Z
 -------------------------------------------------------------------
      1        6           0.008126288    0.005921599    0.006100836
      2        6          -0.018504712   -0.010138989    0.013835155
      3        6           0.001145671   -0.000891426   -0.003516219
      4        8           0.003449330    0.010758213    0.004416628
      5        8          -0.001757009   -0.006410096   -0.008608483
      6        8          -0.000854054    0.000935582    0.001603674
      7        1          -0.000047887   -0.000407339   -0.000394688
      8        1           0.002322928    0.000201483   -0.002133828
      9        1           0.000997795    0.000032140   -0.000889941
     10        1           0.000416567   -0.000134269   -0.000147616
     11        1          -0.001993033   -0.000343311    0.001937708
     12        1           0.006698114    0.000476414   -0.012203226
 -------------------------------------------------------------------
 Cartesian Forces:  Max     0.018504712 RMS     0.005946992
 IRC-IRC-IRC-IRC-IRC-IRC-IRC-IRC-IRC-IRC-IRC-IRC-IRC-IRC-IRC-IRC-IRC-IRC
 Pt  2 Step number   1 out of a maximum of 100
 Modified Bulirsch-Stoer Extrapolation Cycles:
    EPS =    0.000010000000000
      PEZero:  N= 2 I= 1 D=  9.48D-04 Err=  1.73D-05
      PEZero:  N= 3 I= 2 D=  9.48D-04 Err=  1.15D-05
      PEZero:  N= 3 I= 1 D=  1.90D-03 Err=  5.20D-08
 Maximum DWI energy   std dev =  0.000002932 at pt    12
 Maximum DWI gradient std dev =  0.007100207 at pt    23
 CORRECTOR INTEGRATION CONVERGENCE:
   Recorrection delta-x convergence threshold:    0.010000
   Delta-x Convergence Met
 Point Number:   2          Path Number:   1
   CHANGE IN THE REACTION COORDINATE =    0.18200
   NET REACTION COORDINATE UP TO THIS POINT =    0.36399
  # OF POINTS ALONG THE PATH =   2
  # OF STEPS =   1

 Calculating another point on the path.
 IRC-IRC-IRC-IRC-IRC-IRC-IRC-IRC-IRC-IRC-IRC-IRC-IRC-IRC-IRC-IRC-IRC-IRC
                          Input orientation:                          
 ---------------------------------------------------------------------
 Center     Atomic      Atomic             Coordinates (Angstroms)
 Number     Number       Type             X           Y           Z
 ---------------------------------------------------------------------
      1          6           0       -1.983776   -0.876990    0.407846
      2          6           0       -0.288913   -0.342693   -0.618681
      3          6           0        0.771349   -1.116285    0.021017
      4          8           0       -0.287725    0.938278   -0.800515
      5          8           0       -0.074084    1.740938    0.606246
      6          8           0        1.890844   -0.676924    0.235335
      7          1           0        0.901482    1.795138    0.561067
      8          1           0       -2.885946   -0.641240   -0.159398
      9          1           0       -1.923876   -1.911967    0.739207
     10          1           0        0.504154   -2.166468    0.255656
     11          1           0       -1.774695   -0.141912    1.179068
     12          1           0       -1.211830   -0.897399   -0.967210
 ---------------------------------------------------------------------
                    Distance matrix (angstroms):
                    1          2          3          4          5
     1  C    0.000000
     2  C    2.052266   0.000000
     3  C    2.792421   1.460073   0.000000
     4  O    2.762594   1.293813   2.453117   0.000000
     5  O    3.246511   2.426544   3.036605   1.633672   0.000000
     6  O    3.883616   2.364824   1.221572   2.903106   3.137606
     7  H    3.935538   2.716462   2.963945   2.000582   0.978114
     8  H    1.091446   2.654177   3.692429   3.107517   3.763981
     9  H    1.088377   2.641890   2.900542   3.629274   4.096721
    10  H    2.806370   2.172458   1.108753   3.373725   3.965487
    11  H    1.085743   2.340890   2.961896   2.701230   2.601024
    12  H    1.577054   1.131790   2.226545   2.061909   3.275828
                    6          7          8          9         10
     6  O    0.000000
     7  H    2.682541   0.000000
     8  H    4.793205   4.560660   0.000000
     9  H    4.041201   4.664440   1.829705   0.000000
    10  H    2.035207   3.993178   3.740504   2.488758   0.000000
    11  H    3.822702   3.360954   1.809889   1.829980   3.185070
    12  H    3.334863   3.748530   1.876391   2.109080   2.459784
                   11         12
    11  H    0.000000
    12  H    2.343947   0.000000
 Symmetry turned off by external request.
 Stoichiometry    C3H6O3
 Framework group  C1[X(C3H6O3)]
 Deg. of freedom    30
 Full point group                 C1      NOp   1
 Rotational constants (GHZ):           3.7999155           3.1387365           2.1037469
 Standard basis: 6-31+G(d) (6D, 7F)
   126 basis functions,   216 primitive gaussians,   126 cartesian basis functions
    24 alpha electrons       24 beta electrons
       nuclear repulsion energy       237.5199351869 Hartrees.
 NAtoms=   12 NActive=   12 NUniq=   12 SFac= 1.00D+00 NAtFMM=   60 NAOKFM=F Big=F
 Integral buffers will be    131072 words long.
 Raffenetti 2 integral format.
 Two-electron integral symmetry is turned off.
 One-electron integrals computed using PRISM.
 NBasis=   126 RedAO= T EigKep=  9.11D-05  NBF=   126
 NBsUse=   126 1.00D-06 EigRej= -1.00D+00 NBFU=   126
 Initial guess from the checkpoint file:  "/scratch/bell/zhao922/YARP/paper-example/KHP-network/pp_0/IRC-folder/Gau-36739.chk"
 B after Tr=     0.000913    0.000022   -0.001339
         Rot=    1.000000   -0.000252    0.000403   -0.000087 Ang=  -0.06 deg.
 ExpMin= 4.38D-02 ExpMax= 5.48D+03 ExpMxC= 8.25D+02 IAcc=3 IRadAn=         5 AccDes= 0.00D+00
 Harris functional with IExCor=  402 and IRadAn=       5 diagonalized for initial guess.
 HarFok:  IExCor=  402 AccDes= 0.00D+00 IRadAn=         5 IDoV= 1 UseB2=F ITyADJ=14
 ICtDFT=  3500011 ScaDFX=  1.000000  1.000000  1.000000  1.000000
 FoFCou: FMM=F IPFlag=           0 FMFlag=      100000 FMFlg1=           0
         NFxFlg=           0 DoJE=T BraDBF=F KetDBF=T FulRan=T
         wScrn=  0.000000 ICntrl=       500 IOpCl=  0 I1Cent=   200000004 NGrid=           0
         NMat0=    1 NMatS0=      1 NMatT0=    0 NMatD0=    1 NMtDS0=    0 NMtDT0=    0
 Symmetry not used in FoFCou.
 Keep R1 ints in memory in canonical form, NReq=47237219.
 Requested convergence on RMS density matrix=1.00D-08 within 128 cycles.
 Requested convergence on MAX density matrix=1.00D-06.
 Requested convergence on             energy=1.00D-06.
 No special actions if energy rises.
 SCF Done:  E(RB3LYP) =  -343.399707820     A.U. after   13 cycles
            NFock= 13  Conv=0.40D-08     -V/T= 2.0094
 DoSCS=F DFT=T ScalE2(SS,OS)=  1.000000  1.000000
 Range of M.O.s used for correlation:     1   126
 NBasis=   126 NAE=    24 NBE=    24 NFC=     0 NFV=     0
 NROrb=    126 NOA=    24 NOB=    24 NVA=   102 NVB=   102

 **** Warning!!: The largest alpha MO coefficient is  0.31856637D+02

 Symmetrizing basis deriv contribution to polar:
 IMax=3 JMax=2 DiffMx= 0.00D+00
 G2DrvN: will do    13 centers at a time, making    1 passes.
 Calling FoFCou, ICntrl=  3107 FMM=F I1Cent=   0 AccDes= 0.00D+00.
 End of G2Drv F.D. properties file   721 does not exist.
 End of G2Drv F.D. properties file   722 does not exist.
 End of G2Drv F.D. properties file   788 does not exist.
          IDoAtm=111111111111
          Differentiating once with respect to nuclear coordinates.
 Keep R1 ints in memory in canonical form, NReq=47193234.
          There are    39 degrees of freedom in the 1st order CPHF.  IDoFFX=6 NUNeed=     0.
     33 vectors produced by pass  0 Test12= 6.28D-15 2.56D-09 XBig12= 2.78D-01 2.39D-01.
 AX will form    33 AO Fock derivatives at one time.
     33 vectors produced by pass  1 Test12= 6.28D-15 2.56D-09 XBig12= 3.14D-02 3.39D-02.
     33 vectors produced by pass  2 Test12= 6.28D-15 2.56D-09 XBig12= 4.19D-04 2.99D-03.
     33 vectors produced by pass  3 Test12= 6.28D-15 2.56D-09 XBig12= 2.68D-06 2.92D-04.
     33 vectors produced by pass  4 Test12= 6.28D-15 2.56D-09 XBig12= 4.07D-09 8.28D-06.
     28 vectors produced by pass  5 Test12= 6.28D-15 2.56D-09 XBig12= 3.82D-12 2.53D-07.
      6 vectors produced by pass  6 Test12= 6.28D-15 2.56D-09 XBig12= 3.17D-15 8.79D-09.
 InvSVY:  IOpt=1 It=  1 EMax= 2.66D-15
 Solved reduced A of dimension   199 with    33 vectors.
 End of Minotr F.D. properties file   721 does not exist.
 End of Minotr F.D. properties file   722 does not exist.
 End of Minotr F.D. properties file   788 does not exist.
 Calling FoFJK, ICntrl=    100127 FMM=F ISym2X=0 I1Cent= 0 IOpClX= 0 NMat=1 NMatS=1 NMatT=0.
 -------------------------------------------------------------------
 Center     Atomic                   Forces (Hartrees/Bohr)
 Number     Number              X              Y              Z
 -------------------------------------------------------------------
      1        6           0.012807176    0.008824753    0.008042077
      2        6          -0.027751412   -0.014539222    0.020460763
      3        6           0.001890121   -0.001625048   -0.005009910
      4        8           0.005155285    0.015844984    0.006634097
      5        8          -0.002626746   -0.009638674   -0.012891406
      6        8          -0.001426956    0.001448949    0.002288661
      7        1          -0.000087276   -0.000579821   -0.000574996
      8        1           0.003255052    0.000306877   -0.002845193
      9        1           0.001292370    0.000104195   -0.001136586
     10        1           0.000618577   -0.000225171   -0.000205063
     11        1          -0.003086964   -0.000606887    0.002950161
     12        1           0.009960774    0.000685064   -0.017712605
 -------------------------------------------------------------------
 Cartesian Forces:  Max     0.027751412 RMS     0.008803423
 IRC-IRC-IRC-IRC-IRC-IRC-IRC-IRC-IRC-IRC-IRC-IRC-IRC-IRC-IRC-IRC-IRC-IRC
 Pt  3 Step number   1 out of a maximum of 100
 Modified Bulirsch-Stoer Extrapolation Cycles:
    EPS =    0.000010000000000
      PEZero:  N= 2 I= 1 D=  9.48D-04 Err=  1.46D-05
      PEZero:  N= 3 I= 2 D=  9.48D-04 Err=  9.69D-06
      PEZero:  N= 3 I= 1 D=  1.90D-03 Err=  2.97D-08
 Maximum DWI energy   std dev =  0.000006226 at pt    28
 Maximum DWI gradient std dev =  0.003947267 at pt    17
 CORRECTOR INTEGRATION CONVERGENCE:
   Recorrection delta-x convergence threshold:    0.010000
   Delta-x Convergence Met
 Point Number:   3          Path Number:   1
   CHANGE IN THE REACTION COORDINATE =    0.18202
   NET REACTION COORDINATE UP TO THIS POINT =    0.54601
  # OF POINTS ALONG THE PATH =   3
  # OF STEPS =   1

 Calculating another point on the path.
 IRC-IRC-IRC-IRC-IRC-IRC-IRC-IRC-IRC-IRC-IRC-IRC-IRC-IRC-IRC-IRC-IRC-IRC
                          Input orientation:                          
 ---------------------------------------------------------------------
 Center     Atomic      Atomic             Coordinates (Angstroms)
 Number     Number       Type             X           Y           Z
 ---------------------------------------------------------------------
      1          6           0       -1.979497   -0.874141    0.410240
      2          6           0       -0.297879   -0.347273   -0.612077
      3          6           0        0.771974   -1.116849    0.019440
      4          8           0       -0.286482    0.942077   -0.798889
      5          8           0       -0.074721    1.738588    0.603108
      6          8           0        1.890479   -0.676565    0.235874
      7          1           0        0.901139    1.792952    0.558894
      8          1           0       -2.873854   -0.640033   -0.169783
      9          1           0       -1.919217   -1.911420    0.735118
     10          1           0        0.506544   -2.167414    0.254880
     11          1           0       -1.786707   -0.144351    1.190527
     12          1           0       -1.174066   -0.894954   -1.034155
 ---------------------------------------------------------------------
                    Distance matrix (angstroms):
                    1          2          3          4          5
     1  C    0.000000
     2  C    2.037292   0.000000
     3  C    2.789663   1.461385   0.000000
     4  O    2.761691   1.302863   2.455436   0.000000
     5  O    3.239093   2.424312   3.034976   1.626305   0.000000
     6  O    3.878937   2.369888   1.221372   2.903428   3.135257
     7  H    3.928555   2.718342   2.962201   1.994494   0.978372
     8  H    1.091378   2.630014   3.681741   3.097312   3.753711
     9  H    1.088636   2.624924   2.895867   3.627871   4.091717
    10  H    2.806616   2.170628   1.108861   3.377610   3.964339
    11  H    1.085638   2.346736   2.977254   2.718231   2.611785
    12  H    1.653913   1.116157   2.224044   2.053737   3.290096
                    6          7          8          9         10
     6  O    0.000000
     7  H    2.679860   0.000000
     8  H    4.781711   4.549830   0.000000
     9  H    4.035827   4.659167   1.829372   0.000000
    10  H    2.034274   3.991570   3.733674   2.486057   0.000000
    11  H    3.836185   3.372925   1.810533   1.829614   3.198003
    12  H    3.324470   3.750882   1.923902   2.172276   2.470874
                   11         12
    11  H    0.000000
    12  H    2.426508   0.000000
 Symmetry turned off by external request.
 Stoichiometry    C3H6O3
 Framework group  C1[X(C3H6O3)]
 Deg. of freedom    30
 Full point group                 C1      NOp   1
 Rotational constants (GHZ):           3.8043160           3.1429565           2.1066996
 Standard basis: 6-31+G(d) (6D, 7F)
   126 basis functions,   216 primitive gaussians,   126 cartesian basis functions
    24 alpha electrons       24 beta electrons
       nuclear repulsion energy       237.5068618177 Hartrees.
 NAtoms=   12 NActive=   12 NUniq=   12 SFac= 1.00D+00 NAtFMM=   60 NAOKFM=F Big=F
 Integral buffers will be    131072 words long.
 Raffenetti 2 integral format.
 Two-electron integral symmetry is turned off.
 One-electron integrals computed using PRISM.
 NBasis=   126 RedAO= T EigKep=  9.01D-05  NBF=   126
 NBsUse=   126 1.00D-06 EigRej= -1.00D+00 NBFU=   126
 Initial guess from the checkpoint file:  "/scratch/bell/zhao922/YARP/paper-example/KHP-network/pp_0/IRC-folder/Gau-36739.chk"
 B after Tr=     0.000881    0.000010   -0.001288
         Rot=    1.000000   -0.000246    0.000392   -0.000087 Ang=  -0.05 deg.
 ExpMin= 4.38D-02 ExpMax= 5.48D+03 ExpMxC= 8.25D+02 IAcc=3 IRadAn=         5 AccDes= 0.00D+00
 Harris functional with IExCor=  402 and IRadAn=       5 diagonalized for initial guess.
 HarFok:  IExCor=  402 AccDes= 0.00D+00 IRadAn=         5 IDoV= 1 UseB2=F ITyADJ=14
 ICtDFT=  3500011 ScaDFX=  1.000000  1.000000  1.000000  1.000000
 FoFCou: FMM=F IPFlag=           0 FMFlag=      100000 FMFlg1=           0
         NFxFlg=           0 DoJE=T BraDBF=F KetDBF=T FulRan=T
         wScrn=  0.000000 ICntrl=       500 IOpCl=  0 I1Cent=   200000004 NGrid=           0
         NMat0=    1 NMatS0=      1 NMatT0=    0 NMatD0=    1 NMtDS0=    0 NMtDT0=    0
 Symmetry not used in FoFCou.
 Keep R1 ints in memory in canonical form, NReq=47237219.
 Requested convergence on RMS density matrix=1.00D-08 within 128 cycles.
 Requested convergence on MAX density matrix=1.00D-06.
 Requested convergence on             energy=1.00D-06.
 No special actions if energy rises.
 SCF Done:  E(RB3LYP) =  -343.404904228     A.U. after   12 cycles
            NFock= 12  Conv=0.89D-08     -V/T= 2.0095
 DoSCS=F DFT=T ScalE2(SS,OS)=  1.000000  1.000000
 Range of M.O.s used for correlation:     1   126
 NBasis=   126 NAE=    24 NBE=    24 NFC=     0 NFV=     0
 NROrb=    126 NOA=    24 NOB=    24 NVA=   102 NVB=   102

 **** Warning!!: The largest alpha MO coefficient is  0.31704898D+02

 Symmetrizing basis deriv contribution to polar:
 IMax=3 JMax=2 DiffMx= 0.00D+00
 G2DrvN: will do    13 centers at a time, making    1 passes.
 Calling FoFCou, ICntrl=  3107 FMM=F I1Cent=   0 AccDes= 0.00D+00.
 End of G2Drv F.D. properties file   721 does not exist.
 End of G2Drv F.D. properties file   722 does not exist.
 End of G2Drv F.D. properties file   788 does not exist.
          IDoAtm=111111111111
          Differentiating once with respect to nuclear coordinates.
 Keep R1 ints in memory in canonical form, NReq=47193234.
          There are    39 degrees of freedom in the 1st order CPHF.  IDoFFX=6 NUNeed=     0.
     33 vectors produced by pass  0 Test12= 6.28D-15 2.56D-09 XBig12= 2.61D-01 2.03D-01.
 AX will form    33 AO Fock derivatives at one time.
     33 vectors produced by pass  1 Test12= 6.28D-15 2.56D-09 XBig12= 3.05D-02 3.59D-02.
     33 vectors produced by pass  2 Test12= 6.28D-15 2.56D-09 XBig12= 4.38D-04 3.22D-03.
     33 vectors produced by pass  3 Test12= 6.28D-15 2.56D-09 XBig12= 3.09D-06 2.99D-04.
     33 vectors produced by pass  4 Test12= 6.28D-15 2.56D-09 XBig12= 4.79D-09 9.16D-06.
     27 vectors produced by pass  5 Test12= 6.28D-15 2.56D-09 XBig12= 4.08D-12 2.76D-07.
      6 vectors produced by pass  6 Test12= 6.28D-15 2.56D-09 XBig12= 3.56D-15 9.35D-09.
 InvSVY:  IOpt=1 It=  1 EMax= 2.22D-15
 Solved reduced A of dimension   198 with    33 vectors.
 End of Minotr F.D. properties file   721 does not exist.
 End of Minotr F.D. properties file   722 does not exist.
 End of Minotr F.D. properties file   788 does not exist.
 Calling FoFJK, ICntrl=    100127 FMM=F ISym2X=0 I1Cent= 0 IOpClX= 0 NMat=1 NMatS=1 NMatT=0.
 -------------------------------------------------------------------
 Center     Atomic                   Forces (Hartrees/Bohr)
 Number     Number              X              Y              Z
 -------------------------------------------------------------------
      1        6           0.017914171    0.011535951    0.008487687
      2        6          -0.036496922   -0.018020937    0.026304327
      3        6           0.002609596   -0.002438542   -0.006093734
      4        8           0.006606693    0.020006537    0.008877200
      5        8          -0.003371999   -0.012658255   -0.016911982
      6        8          -0.002081320    0.001949413    0.002773871
      7        1          -0.000126871   -0.000717709   -0.000707310
      8        1           0.003961606    0.000398420   -0.003245949
      9        1           0.001457443    0.000217321   -0.001274263
     10        1           0.000821580   -0.000320179   -0.000271580
     11        1          -0.004094000   -0.000924217    0.003787966
     12        1           0.012800023    0.000972197   -0.021726234
 -------------------------------------------------------------------
 Cartesian Forces:  Max     0.036496922 RMS     0.011330425
 IRC-IRC-IRC-IRC-IRC-IRC-IRC-IRC-IRC-IRC-IRC-IRC-IRC-IRC-IRC-IRC-IRC-IRC
 Pt  4 Step number   1 out of a maximum of 100
 Modified Bulirsch-Stoer Extrapolation Cycles:
    EPS =    0.000010000000000
      PEZero:  N= 2 I= 1 D=  9.48D-04 Err=  2.25D-05
      PEZero:  N= 3 I= 2 D=  9.48D-04 Err=  1.50D-05
      PEZero:  N= 3 I= 1 D=  1.90D-03 Err=  5.90D-08
 Maximum DWI energy   std dev =  0.000007316 at pt    19
 Maximum DWI gradient std dev =  0.004985769 at pt    13
 CORRECTOR INTEGRATION CONVERGENCE:
   Recorrection delta-x convergence threshold:    0.010000
   Delta-x Convergence Met
 Point Number:   4          Path Number:   1
   CHANGE IN THE REACTION COORDINATE =    0.18202
   NET REACTION COORDINATE UP TO THIS POINT =    0.72803
  # OF POINTS ALONG THE PATH =   4
  # OF STEPS =   1

 Calculating another point on the path.
 IRC-IRC-IRC-IRC-IRC-IRC-IRC-IRC-IRC-IRC-IRC-IRC-IRC-IRC-IRC-IRC-IRC-IRC
                          Input orientation:                          
 ---------------------------------------------------------------------
 Center     Atomic      Atomic             Coordinates (Angstroms)
 Number     Number       Type             X           Y           Z
 ---------------------------------------------------------------------
      1          6           0       -1.974690   -0.871155    0.412166
      2          6           0       -0.307325   -0.351797   -0.605276
      3          6           0        0.772655   -1.117509    0.017921
      4          8           0       -0.285216    0.945894   -0.797136
      5          8           0       -0.075369    1.736119    0.599809
      6          8           0        1.890055   -0.676181    0.236390
      7          1           0        0.900755    1.790797    0.556786
      8          1           0       -2.862069   -0.638795   -0.179205
      9          1           0       -1.915000   -1.910614    0.731429
     10          1           0        0.509111   -2.168466    0.254030
     11          1           0       -1.799328   -0.147306    1.202123
     12          1           0       -1.135582   -0.892164   -1.099172
 ---------------------------------------------------------------------
                    Distance matrix (angstroms):
                    1          2          3          4          5
     1  C    0.000000
     2  C    2.021145   0.000000
     3  C    2.786400   1.463232   0.000000
     4  O    2.760145   1.311983   2.457853   0.000000
     5  O    3.231177   2.421864   3.033303   1.618625   0.000000
     6  O    3.873650   2.375312   1.221098   2.903636   3.132755
     7  H    3.921108   2.720396   2.960579   1.988339   0.978600
     8  H    1.091399   2.605881   3.671409   3.087596   3.743364
     9  H    1.089021   2.607932   2.891643   3.626616   4.086591
    10  H    2.806652   2.169162   1.108925   3.381589   3.963201
    11  H    1.085698   2.352569   2.993113   2.735811   2.623377
    12  H    1.728782   1.105414   2.222622   2.047634   3.304309
                    6          7          8          9         10
     6  O    0.000000
     7  H    2.677190   0.000000
     8  H    4.770408   4.539101   0.000000
     9  H    4.030798   4.653968   1.828584   0.000000
    10  H    2.033281   3.990089   3.727257   2.484092   0.000000
    11  H    3.850182   3.385728   1.810814   1.828712   3.211365
    12  H    3.314341   3.753285   1.972635   2.235136   2.482966
                   11         12
    11  H    0.000000
    12  H    2.508253   0.000000
 Symmetry turned off by external request.
 Stoichiometry    C3H6O3
 Framework group  C1[X(C3H6O3)]
 Deg. of freedom    30
 Full point group                 C1      NOp   1
 Rotational constants (GHZ):           3.8092855           3.1474697           2.1098442
 Standard basis: 6-31+G(d) (6D, 7F)
   126 basis functions,   216 primitive gaussians,   126 cartesian basis functions
    24 alpha electrons       24 beta electrons
       nuclear repulsion energy       237.5037369318 Hartrees.
 NAtoms=   12 NActive=   12 NUniq=   12 SFac= 1.00D+00 NAtFMM=   60 NAOKFM=F Big=F
 Integral buffers will be    131072 words long.
 Raffenetti 2 integral format.
 Two-electron integral symmetry is turned off.
 One-electron integrals computed using PRISM.
 NBasis=   126 RedAO= T EigKep=  8.91D-05  NBF=   126
 NBsUse=   126 1.00D-06 EigRej= -1.00D+00 NBFU=   126
 Initial guess from the checkpoint file:  "/scratch/bell/zhao922/YARP/paper-example/KHP-network/pp_0/IRC-folder/Gau-36739.chk"
 B after Tr=     0.000870    0.000010   -0.001226
         Rot=    1.000000   -0.000240    0.000381   -0.000087 Ang=  -0.05 deg.
 ExpMin= 4.38D-02 ExpMax= 5.48D+03 ExpMxC= 8.25D+02 IAcc=3 IRadAn=         5 AccDes= 0.00D+00
 Harris functional with IExCor=  402 and IRadAn=       5 diagonalized for initial guess.
 HarFok:  IExCor=  402 AccDes= 0.00D+00 IRadAn=         5 IDoV= 1 UseB2=F ITyADJ=14
 ICtDFT=  3500011 ScaDFX=  1.000000  1.000000  1.000000  1.000000
 FoFCou: FMM=F IPFlag=           0 FMFlag=      100000 FMFlg1=           0
         NFxFlg=           0 DoJE=T BraDBF=F KetDBF=T FulRan=T
         wScrn=  0.000000 ICntrl=       500 IOpCl=  0 I1Cent=   200000004 NGrid=           0
         NMat0=    1 NMatS0=      1 NMatT0=    0 NMatD0=    1 NMtDS0=    0 NMtDT0=    0
 Symmetry not used in FoFCou.
 Keep R1 ints in memory in canonical form, NReq=47237219.
 Requested convergence on RMS density matrix=1.00D-08 within 128 cycles.
 Requested convergence on MAX density matrix=1.00D-06.
 Requested convergence on             energy=1.00D-06.
 No special actions if energy rises.
 SCF Done:  E(RB3LYP) =  -343.411130401     A.U. after   12 cycles
            NFock= 12  Conv=0.75D-08     -V/T= 2.0096
 DoSCS=F DFT=T ScalE2(SS,OS)=  1.000000  1.000000
 Range of M.O.s used for correlation:     1   126
 NBasis=   126 NAE=    24 NBE=    24 NFC=     0 NFV=     0
 NROrb=    126 NOA=    24 NOB=    24 NVA=   102 NVB=   102

 **** Warning!!: The largest alpha MO coefficient is  0.31999494D+02

 Symmetrizing basis deriv contribution to polar:
 IMax=3 JMax=2 DiffMx= 0.00D+00
 G2DrvN: will do    13 centers at a time, making    1 passes.
 Calling FoFCou, ICntrl=  3107 FMM=F I1Cent=   0 AccDes= 0.00D+00.
 End of G2Drv F.D. properties file   721 does not exist.
 End of G2Drv F.D. properties file   722 does not exist.
 End of G2Drv F.D. properties file   788 does not exist.
          IDoAtm=111111111111
          Differentiating once with respect to nuclear coordinates.
 Keep R1 ints in memory in canonical form, NReq=47193234.
          There are    39 degrees of freedom in the 1st order CPHF.  IDoFFX=6 NUNeed=     0.
     33 vectors produced by pass  0 Test12= 6.28D-15 2.56D-09 XBig12= 2.43D-01 1.64D-01.
 AX will form    33 AO Fock derivatives at one time.
     33 vectors produced by pass  1 Test12= 6.28D-15 2.56D-09 XBig12= 3.15D-02 3.75D-02.
     33 vectors produced by pass  2 Test12= 6.28D-15 2.56D-09 XBig12= 4.75D-04 3.16D-03.
     33 vectors produced by pass  3 Test12= 6.28D-15 2.56D-09 XBig12= 3.64D-06 2.64D-04.
     33 vectors produced by pass  4 Test12= 6.28D-15 2.56D-09 XBig12= 6.08D-09 1.13D-05.
     27 vectors produced by pass  5 Test12= 6.28D-15 2.56D-09 XBig12= 4.97D-12 3.12D-07.
      6 vectors produced by pass  6 Test12= 6.28D-15 2.56D-09 XBig12= 4.50D-15 8.52D-09.
 InvSVY:  IOpt=1 It=  1 EMax= 1.33D-15
 Solved reduced A of dimension   198 with    33 vectors.
 End of Minotr F.D. properties file   721 does not exist.
 End of Minotr F.D. properties file   722 does not exist.
 End of Minotr F.D. properties file   788 does not exist.
 Calling FoFJK, ICntrl=    100127 FMM=F ISym2X=0 I1Cent= 0 IOpClX= 0 NMat=1 NMatS=1 NMatT=0.
 -------------------------------------------------------------------
 Center     Atomic                   Forces (Hartrees/Bohr)
 Number     Number              X              Y              Z
 -------------------------------------------------------------------
      1        6           0.023215622    0.013967814    0.007549470
      2        6          -0.044604180   -0.020657570    0.031145230
      3        6           0.003249732   -0.003204010   -0.006716766
      4        8           0.007723364    0.023136544    0.011107333
      5        8          -0.003931749   -0.015365906   -0.020544269
      6        8          -0.002775161    0.002403109    0.003038180
      7        1          -0.000165821   -0.000815594   -0.000782528
      8        1           0.004454275    0.000474380   -0.003399512
      9        1           0.001535624    0.000355607   -0.001348235
     10        1           0.001023355   -0.000425727   -0.000349075
     11        1          -0.004914192   -0.001253497    0.004381942
     12        1           0.015189130    0.001384851   -0.024081771
 -------------------------------------------------------------------
 Cartesian Forces:  Max     0.044604180 RMS     0.013492819
 IRC-IRC-IRC-IRC-IRC-IRC-IRC-IRC-IRC-IRC-IRC-IRC-IRC-IRC-IRC-IRC-IRC-IRC
 Pt  5 Step number   1 out of a maximum of 100
 Modified Bulirsch-Stoer Extrapolation Cycles:
    EPS =    0.000010000000000
      PEZero:  N= 2 I= 1 D=  9.48D-04 Err=  2.77D-05
      PEZero:  N= 3 I= 2 D=  9.48D-04 Err=  1.85D-05
      PEZero:  N= 3 I= 1 D=  1.90D-03 Err=  8.26D-08
 Maximum DWI energy   std dev =  0.000007542 at pt    19
 Maximum DWI gradient std dev =  0.005695000 at pt    17
 CORRECTOR INTEGRATION CONVERGENCE:
   Recorrection delta-x convergence threshold:    0.010000
   Delta-x Convergence Met
 Point Number:   5          Path Number:   1
   CHANGE IN THE REACTION COORDINATE =    0.18201
   NET REACTION COORDINATE UP TO THIS POINT =    0.91004
  # OF POINTS ALONG THE PATH =   5
  # OF STEPS =   1

 Calculating another point on the path.
 IRC-IRC-IRC-IRC-IRC-IRC-IRC-IRC-IRC-IRC-IRC-IRC-IRC-IRC-IRC-IRC-IRC-IRC
                          Input orientation:                          
 ---------------------------------------------------------------------
 Center     Atomic      Atomic             Coordinates (Angstroms)
 Number     Number       Type             X           Y           Z
 ---------------------------------------------------------------------
      1          6           0       -1.969282   -0.868009    0.413564
      2          6           0       -0.317375   -0.356300   -0.598278
      3          6           0        0.773387   -1.118248    0.016483
      4          8           0       -0.283937    0.949716   -0.795221
      5          8           0       -0.076020    1.733514    0.596325
      6          8           0        1.889565   -0.675771    0.236875
      7          1           0        0.900325    1.788676    0.554785
      8          1           0       -2.850542   -0.637519   -0.187755
      9          1           0       -1.911109   -1.909536    0.727996
     10          1           0        0.511910   -2.169676    0.253061
     11          1           0       -1.812366   -0.150745    1.213647
     12          1           0       -1.095959   -0.888621   -1.161382
 ---------------------------------------------------------------------
                    Distance matrix (angstroms):
                    1          2          3          4          5
     1  C    0.000000
     2  C    2.003614   0.000000
     3  C    2.782539   1.465693   0.000000
     4  O    2.757838   1.321205   2.460339   0.000000
     5  O    3.222694   2.419225   3.031543   1.610581   0.000000
     6  O    3.867670   2.381203   1.220743   2.903712   3.130077
     7  H    3.913126   2.722732   2.959069   1.982133   0.978784
     8  H    1.091481   2.581579   3.661375   3.078277   3.732901
     9  H    1.089509   2.590662   2.887716   3.625355   4.081262
    10  H    2.806495   2.168139   1.108982   3.385687   3.962119
    11  H    1.085919   2.358034   3.009216   2.753663   2.635605
    12  H    1.800992   1.098474   2.221383   2.042777   3.317439
                    6          7          8          9         10
     6  O    0.000000
     7  H    2.674540   0.000000
     8  H    4.759242   4.528442   0.000000
     9  H    4.025978   4.648756   1.827337   0.000000
    10  H    2.032227   3.988791   3.721278   2.482792   0.000000
    11  H    3.864458   3.399139   1.810713   1.827280   3.225069
    12  H    3.303601   3.754770   2.022267   2.297060   2.495394
                   11         12
    11  H    0.000000
    12  H    2.588139   0.000000
 Symmetry turned off by external request.
 Stoichiometry    C3H6O3
 Framework group  C1[X(C3H6O3)]
 Deg. of freedom    30
 Full point group                 C1      NOp   1
 Rotational constants (GHZ):           3.8150945           3.1524541           2.1132447
 Standard basis: 6-31+G(d) (6D, 7F)
   126 basis functions,   216 primitive gaussians,   126 cartesian basis functions
    24 alpha electrons       24 beta electrons
       nuclear repulsion energy       237.5172145032 Hartrees.
 NAtoms=   12 NActive=   12 NUniq=   12 SFac= 1.00D+00 NAtFMM=   60 NAOKFM=F Big=F
 Integral buffers will be    131072 words long.
 Raffenetti 2 integral format.
 Two-electron integral symmetry is turned off.
 One-electron integrals computed using PRISM.
 NBasis=   126 RedAO= T EigKep=  8.82D-05  NBF=   126
 NBsUse=   126 1.00D-06 EigRej= -1.00D+00 NBFU=   126
 Initial guess from the checkpoint file:  "/scratch/bell/zhao922/YARP/paper-example/KHP-network/pp_0/IRC-folder/Gau-36739.chk"
 B after Tr=     0.000874    0.000018   -0.001154
         Rot=    1.000000   -0.000235    0.000372   -0.000087 Ang=  -0.05 deg.
 ExpMin= 4.38D-02 ExpMax= 5.48D+03 ExpMxC= 8.25D+02 IAcc=3 IRadAn=         5 AccDes= 0.00D+00
 Harris functional with IExCor=  402 and IRadAn=       5 diagonalized for initial guess.
 HarFok:  IExCor=  402 AccDes= 0.00D+00 IRadAn=         5 IDoV= 1 UseB2=F ITyADJ=14
 ICtDFT=  3500011 ScaDFX=  1.000000  1.000000  1.000000  1.000000
 FoFCou: FMM=F IPFlag=           0 FMFlag=      100000 FMFlg1=           0
         NFxFlg=           0 DoJE=T BraDBF=F KetDBF=T FulRan=T
         wScrn=  0.000000 ICntrl=       500 IOpCl=  0 I1Cent=   200000004 NGrid=           0
         NMat0=    1 NMatS0=      1 NMatT0=    0 NMatD0=    1 NMtDS0=    0 NMtDT0=    0
 Symmetry not used in FoFCou.
 Keep R1 ints in memory in canonical form, NReq=47237219.
 Requested convergence on RMS density matrix=1.00D-08 within 128 cycles.
 Requested convergence on MAX density matrix=1.00D-06.
 Requested convergence on             energy=1.00D-06.
 No special actions if energy rises.
 SCF Done:  E(RB3LYP) =  -343.418095392     A.U. after   12 cycles
            NFock= 12  Conv=0.64D-08     -V/T= 2.0097
 DoSCS=F DFT=T ScalE2(SS,OS)=  1.000000  1.000000
 Range of M.O.s used for correlation:     1   126
 NBasis=   126 NAE=    24 NBE=    24 NFC=     0 NFV=     0
 NROrb=    126 NOA=    24 NOB=    24 NVA=   102 NVB=   102

 **** Warning!!: The largest alpha MO coefficient is  0.32223065D+02

 Symmetrizing basis deriv contribution to polar:
 IMax=3 JMax=2 DiffMx= 0.00D+00
 G2DrvN: will do    13 centers at a time, making    1 passes.
 Calling FoFCou, ICntrl=  3107 FMM=F I1Cent=   0 AccDes= 0.00D+00.
 End of G2Drv F.D. properties file   721 does not exist.
 End of G2Drv F.D. properties file   722 does not exist.
 End of G2Drv F.D. properties file   788 does not exist.
          IDoAtm=111111111111
          Differentiating once with respect to nuclear coordinates.
 Keep R1 ints in memory in canonical form, NReq=47193234.
          There are    39 degrees of freedom in the 1st order CPHF.  IDoFFX=6 NUNeed=     0.
     33 vectors produced by pass  0 Test12= 6.28D-15 2.56D-09 XBig12= 2.26D-01 1.29D-01.
 AX will form    33 AO Fock derivatives at one time.
     33 vectors produced by pass  1 Test12= 6.28D-15 2.56D-09 XBig12= 3.47D-02 3.88D-02.
     33 vectors produced by pass  2 Test12= 6.28D-15 2.56D-09 XBig12= 5.48D-04 3.19D-03.
     33 vectors produced by pass  3 Test12= 6.28D-15 2.56D-09 XBig12= 3.93D-06 2.48D-04.
     33 vectors produced by pass  4 Test12= 6.28D-15 2.56D-09 XBig12= 7.58D-09 1.30D-05.
     27 vectors produced by pass  5 Test12= 6.28D-15 2.56D-09 XBig12= 6.50D-12 3.60D-07.
      6 vectors produced by pass  6 Test12= 6.28D-15 2.56D-09 XBig12= 6.05D-15 1.23D-08.
 InvSVY:  IOpt=1 It=  1 EMax= 1.33D-15
 Solved reduced A of dimension   198 with    33 vectors.
 End of Minotr F.D. properties file   721 does not exist.
 End of Minotr F.D. properties file   722 does not exist.
 End of Minotr F.D. properties file   788 does not exist.
 Calling FoFJK, ICntrl=    100127 FMM=F ISym2X=0 I1Cent= 0 IOpClX= 0 NMat=1 NMatS=1 NMatT=0.
 -------------------------------------------------------------------
 Center     Atomic                   Forces (Hartrees/Bohr)
 Number     Number              X              Y              Z
 -------------------------------------------------------------------
      1        6           0.028422438    0.016069375    0.005532678
      2        6          -0.051855236   -0.022515390    0.034837932
      3        6           0.003752278   -0.003841927   -0.006864837
      4        8           0.008456490    0.025184390    0.013269674
      5        8          -0.004281348   -0.017676392   -0.023671834
      6        8          -0.003477102    0.002792542    0.003075434
      7        1          -0.000202721   -0.000874012   -0.000801942
      8        1           0.004755327    0.000534999   -0.003367077
      9        1           0.001566828    0.000505887   -0.001396550
     10        1           0.001222753   -0.000543251   -0.000438340
     11        1          -0.005482124   -0.001557413    0.004700491
     12        1           0.017122418    0.001921193   -0.024875627
 -------------------------------------------------------------------
 Cartesian Forces:  Max     0.051855236 RMS     0.015272643
 IRC-IRC-IRC-IRC-IRC-IRC-IRC-IRC-IRC-IRC-IRC-IRC-IRC-IRC-IRC-IRC-IRC-IRC
 Pt  6 Step number   1 out of a maximum of 100
 Modified Bulirsch-Stoer Extrapolation Cycles:
    EPS =    0.000010000000000
      PEZero:  N= 2 I= 1 D=  9.48D-04 Err=  3.58D-05
      PEZero:  N= 3 I= 2 D=  9.48D-04 Err=  2.38D-05
      PEZero:  N= 3 I= 1 D=  1.90D-03 Err=  9.83D-08
 Maximum DWI energy   std dev =  0.000007496 at pt    28
 Maximum DWI gradient std dev =  0.005969401 at pt    17
 CORRECTOR INTEGRATION CONVERGENCE:
   Recorrection delta-x convergence threshold:    0.010000
   Delta-x Convergence Met
 Point Number:   6          Path Number:   1
   CHANGE IN THE REACTION COORDINATE =    0.18200
   NET REACTION COORDINATE UP TO THIS POINT =    1.09205
  # OF POINTS ALONG THE PATH =   6
  # OF STEPS =   1

 Calculating another point on the path.
 IRC-IRC-IRC-IRC-IRC-IRC-IRC-IRC-IRC-IRC-IRC-IRC-IRC-IRC-IRC-IRC-IRC-IRC
                          Input orientation:                          
 ---------------------------------------------------------------------
 Center     Atomic      Atomic             Coordinates (Angstroms)
 Number     Number       Type             X           Y           Z
 ---------------------------------------------------------------------
      1          6           0       -1.963222   -0.864684    0.414394
      2          6           0       -0.328102   -0.360802   -0.591100
      3          6           0        0.774153   -1.119050    0.015152
      4          8           0       -0.282661    0.953518   -0.793118
      5          8           0       -0.076667    1.730767    0.592643
      6          8           0        1.889004   -0.675334    0.237319
      7          1           0        0.899844    1.786596    0.552925
      8          1           0       -2.839240   -0.636201   -0.195510
      9          1           0       -1.907418   -1.908175    0.724677
     10          1           0        0.514995   -2.171090    0.251932
     11          1           0       -1.825579   -0.154613    1.224869
     12          1           0       -1.054972   -0.884034   -1.220035
 ---------------------------------------------------------------------
                    Distance matrix (angstroms):
                    1          2          3          4          5
     1  C    0.000000
     2  C    1.984574   0.000000
     3  C    2.778006   1.468825   0.000000
     4  O    2.754674   1.330531   2.462862   0.000000
     5  O    3.213601   2.416428   3.029661   1.602149   0.000000
     6  O    3.860939   2.387627   1.220300   2.903633   3.127209
     7  H    3.904565   2.725429   2.957664   1.975897   0.978911
     8  H    1.091602   2.556981   3.651593   3.069273   3.722302
     9  H    1.090075   2.572912   2.883916   3.623924   4.075657
    10  H    2.806181   2.167639   1.109061   3.389920   3.961141
    11  H    1.086286   2.362773   3.025254   2.771429   2.648218
    12  H    1.869933   1.094382   2.219598   2.038460   3.328673
                    6          7          8          9         10
     6  O    0.000000
     7  H    2.671918   0.000000
     8  H    4.748175   4.517837   0.000000
     9  H    4.021223   4.643442   1.825638   0.000000
    10  H    2.031108   3.987730   3.715775   2.482075   0.000000
    11  H    3.878728   3.412877   1.810224   1.825341   3.238993
    12  H    3.291569   3.754591   2.072362   2.357421   2.507588
                   11         12
    11  H    0.000000
    12  H    2.665228   0.000000
 Symmetry turned off by external request.
 Stoichiometry    C3H6O3
 Framework group  C1[X(C3H6O3)]
 Deg. of freedom    30
 Full point group                 C1      NOp   1
 Rotational constants (GHZ):           3.8219749           3.1580536           2.1169498
 Standard basis: 6-31+G(d) (6D, 7F)
   126 basis functions,   216 primitive gaussians,   126 cartesian basis functions
    24 alpha electrons       24 beta electrons
       nuclear repulsion energy       237.5534425115 Hartrees.
 NAtoms=   12 NActive=   12 NUniq=   12 SFac= 1.00D+00 NAtFMM=   60 NAOKFM=F Big=F
 Integral buffers will be    131072 words long.
 Raffenetti 2 integral format.
 Two-electron integral symmetry is turned off.
 One-electron integrals computed using PRISM.
 NBasis=   126 RedAO= T EigKep=  8.75D-05  NBF=   126
 NBsUse=   126 1.00D-06 EigRej= -1.00D+00 NBFU=   126
 Initial guess from the checkpoint file:  "/scratch/bell/zhao922/YARP/paper-example/KHP-network/pp_0/IRC-folder/Gau-36739.chk"
 B after Tr=     0.000892    0.000032   -0.001077
         Rot=    1.000000   -0.000230    0.000362   -0.000088 Ang=  -0.05 deg.
 ExpMin= 4.38D-02 ExpMax= 5.48D+03 ExpMxC= 8.25D+02 IAcc=3 IRadAn=         5 AccDes= 0.00D+00
 Harris functional with IExCor=  402 and IRadAn=       5 diagonalized for initial guess.
 HarFok:  IExCor=  402 AccDes= 0.00D+00 IRadAn=         5 IDoV= 1 UseB2=F ITyADJ=14
 ICtDFT=  3500011 ScaDFX=  1.000000  1.000000  1.000000  1.000000
 FoFCou: FMM=F IPFlag=           0 FMFlag=      100000 FMFlg1=           0
         NFxFlg=           0 DoJE=T BraDBF=F KetDBF=T FulRan=T
         wScrn=  0.000000 ICntrl=       500 IOpCl=  0 I1Cent=   200000004 NGrid=           0
         NMat0=    1 NMatS0=      1 NMatT0=    0 NMatD0=    1 NMtDS0=    0 NMtDT0=    0
 Symmetry not used in FoFCou.
 Keep R1 ints in memory in canonical form, NReq=47237219.
 Requested convergence on RMS density matrix=1.00D-08 within 128 cycles.
 Requested convergence on MAX density matrix=1.00D-06.
 Requested convergence on             energy=1.00D-06.
 No special actions if energy rises.
 SCF Done:  E(RB3LYP) =  -343.425530748     A.U. after   12 cycles
            NFock= 12  Conv=0.55D-08     -V/T= 2.0098
 DoSCS=F DFT=T ScalE2(SS,OS)=  1.000000  1.000000
 Range of M.O.s used for correlation:     1   126
 NBasis=   126 NAE=    24 NBE=    24 NFC=     0 NFV=     0
 NROrb=    126 NOA=    24 NOB=    24 NVA=   102 NVB=   102

 **** Warning!!: The largest alpha MO coefficient is  0.32382336D+02

 Symmetrizing basis deriv contribution to polar:
 IMax=3 JMax=2 DiffMx= 0.00D+00
[...]
   9                   -1.87860   0.51025  -1.76532  -0.27442   1.00409
  10                   -1.89349   0.50021  -1.75351  -0.27272   1.00334
  11                   -1.90806   0.49049  -1.74230  -0.27028   1.00251
  12                   -1.92232   0.48111  -1.73171  -0.26710   1.00169
  13                   -1.93627   0.47205  -1.72179  -0.26323   1.00096
  14                   -1.94993   0.46330  -1.71257  -0.25870   1.00043
  15                   -1.96331   0.45482  -1.70411  -0.25357   1.00020
  16                   -1.97640   0.44655  -1.69646  -0.24792   1.00037
  17                   -1.98923   0.43843  -1.68966  -0.24183   1.00101
  18                   -2.00177   0.43036  -1.68375  -0.23539   1.00220
  19                   -2.01403   0.42229  -1.67874  -0.22871   1.00400
  20                   -2.02599   0.41412  -1.67464  -0.22189   1.00643
  21                   -2.03761   0.40581  -1.67144  -0.21502   1.00950
  22                   -2.04886   0.39731  -1.66910  -0.20821   1.01321
  23                   -2.05970   0.38861  -1.66761  -0.20154   1.01754
  24                   -2.07007   0.37971  -1.66693  -0.19507   1.02244
  25                   -2.07994   0.37062  -1.66700  -0.18887   1.02785
  26                   -2.08929   0.36138  -1.66776  -0.18297   1.03370
  27                   -2.09807   0.35204  -1.66911  -0.17740   1.03987
  28                   -2.10628   0.34264  -1.67097  -0.17217   1.04629
  29                   -2.11391   0.33325  -1.67328  -0.16730   1.05286
  30                   -2.12096   0.32395  -1.67601  -0.16278   1.05953
  31                   -2.12742   0.31484  -1.67912  -0.15861   1.06627
  32                   -2.13332   0.30599  -1.68264  -0.15476   1.07306
  33                   -2.13867   0.29750  -1.68658  -0.15125   1.07991
  34                   -2.14350   0.28948  -1.69098  -0.14805   1.08683
  35                   -2.14783   0.28206  -1.69596  -0.14518   1.09391
  36                   -2.15166   0.27540  -1.70171  -0.14268   1.10130
  37                   -2.15502   0.26968  -1.70842  -0.14062   1.10916
  38                   -2.15789   0.26508  -1.71619  -0.13907   1.11770
  39                   -2.16024   0.26175  -1.72489  -0.13811   1.12701
  40                   -2.16206   0.25961  -1.73405  -0.13776   1.13687
  41                   -2.16341   0.25833  -1.74342  -0.13806   1.14702
  42                   -2.16456   0.25725  -1.75320  -0.13881   1.15732
  43                   -2.16553   0.25641  -1.76361  -0.14013   1.16800
  44                   -2.16645   0.25565  -1.77481  -0.14200   1.17910
  45                   -2.16741   0.25487  -1.78677  -0.14441   1.19052
  46                   -2.16847   0.25402  -1.79936  -0.14735   1.20209
  47                   -2.16968   0.25305  -1.81237  -0.15078   1.21359
  48                   -2.17110   0.25192  -1.82557  -0.15465   1.22481
  49                   -2.17276   0.25058  -1.83868  -0.15887   1.23550
  50                   -2.17472   0.24897  -1.85140  -0.16335   1.24545
  51                   -2.17702   0.24701  -1.86341  -0.16799   1.25446
  52                   -2.17970   0.24461  -1.87436  -0.17266   1.26233
  53                   -2.18280   0.24168  -1.88385  -0.17724   1.26888
  54                   -2.18632   0.23810  -1.89145  -0.18155   1.27395
  55                   -2.19028   0.23378  -1.89672  -0.18544   1.27739
  56                   -2.19463   0.22867  -1.89922  -0.18875   1.27916
  57                   -2.19930   0.22276  -1.89865  -0.19135   1.27928
  58                   -2.20420   0.21616  -1.89482  -0.19318   1.27792
  59                   -2.20924   0.20901  -1.88770  -0.19421   1.27536
  60                   -2.21434   0.20157  -1.87730  -0.19447   1.27198
  61                   -2.21941   0.19429  -1.86352  -0.19401   1.26827
  62                   -2.22434   0.18806  -1.84601  -0.19283   1.26494
  63                   -2.22872   0.18487  -1.82420  -0.19113   1.26312
  64                   -2.23174   0.18751  -1.79794  -0.18989   1.26442
  65                   -2.23268   0.19528  -1.76917  -0.19163   1.27006
  66                   -2.23191   0.20250  -1.74190  -0.19829   1.27953
  67                   -2.23052   0.20556  -1.71791  -0.20931   1.29111
  68                   -2.22929   0.20411  -1.69663  -0.22340   1.30341
  69                   -2.22858   0.19847  -1.67725  -0.23964   1.31567
  70                   -2.22848   0.18856  -1.65932  -0.25732   1.32744
  71                   -2.22902   0.17393  -1.64261  -0.27562   1.33842
  72                   -2.23024   0.15384  -1.62686  -0.29329   1.34834
  73                   -2.23228   0.12725  -1.61150  -0.30844   1.35702
  74                   -2.23553   0.09326  -1.59515  -0.31864   1.36466
                          X12       Y12       Z12
   1                   -2.08490  -1.41230  -0.38095
   2                   -2.07200  -1.40807  -0.38581
   3                   -2.05919  -1.40369  -0.39082
   4                   -2.04642  -1.39912  -0.39597
   5                   -2.03360  -1.39432  -0.40126
   6                   -2.02069  -1.38922  -0.40671
   7                   -2.00759  -1.38377  -0.41230
   8                   -1.99423  -1.37789  -0.41806
   9                   -1.98054  -1.37152  -0.42397
  10                   -1.96644  -1.36459  -0.43004
  11                   -1.95186  -1.35703  -0.43627
  12                   -1.93674  -1.34877  -0.44265
  13                   -1.92103  -1.33976  -0.44916
  14                   -1.90468  -1.32996  -0.45578
  15                   -1.88767  -1.31931  -0.46246
  16                   -1.86998  -1.30781  -0.46915
  17                   -1.85162  -1.29543  -0.47581
  18                   -1.83264  -1.28218  -0.48239
  19                   -1.81307  -1.26810  -0.48884
  20                   -1.79298  -1.25321  -0.49511
  21                   -1.77244  -1.23758  -0.50116
  22                   -1.75151  -1.22126  -0.50698
  23                   -1.73027  -1.20432  -0.51253
  24                   -1.70879  -1.18681  -0.51784
  25                   -1.68715  -1.16884  -0.52292
  26                   -1.66543  -1.15050  -0.52783
  27                   -1.64372  -1.13187  -0.53263
  28                   -1.62212  -1.11307  -0.53741
  29                   -1.60068  -1.09419  -0.54228
  30                   -1.57948  -1.07532  -0.54735
  31                   -1.55856  -1.05657  -0.55282
  32                   -1.53795  -1.03805  -0.55889
  33                   -1.51770  -1.01989  -0.56585
  34                   -1.49782  -1.00221  -0.57401
  35                   -1.47826  -0.98513  -0.58381
  36                   -1.45886  -0.96879  -0.59591
  37                   -1.43909  -0.95335  -0.61145
  38                   -1.41775  -0.93908  -0.63282
  39                   -1.39241  -0.92652  -0.66459
  40                   -1.36101  -0.91655  -0.71087
  41                   -1.32461  -0.90938  -0.76949
  42                   -1.28738  -0.90401  -0.83280
  43                   -1.24959  -0.90030  -0.89961
  44                   -1.21185  -0.89746  -0.96716
  45                   -1.17393  -0.89488  -1.03395
  46                   -1.13534  -0.89201  -1.09888
  47                   -1.09564  -0.88841  -1.16103
  48                   -1.05462  -0.88379  -1.21964
  49                   -1.01229  -0.87801  -1.27405
  50                   -0.96889  -0.87104  -1.32371
  51                   -0.92490  -0.86295  -1.36812
  52                   -0.88104  -0.85394  -1.40689
  53                   -0.83822  -0.84430  -1.43966
  54                   -0.79759  -0.83444  -1.46625
  55                   -0.76039  -0.82483  -1.48663
  56                   -0.72781  -0.81602  -1.50104
  57                   -0.70079  -0.80849  -1.50997
  58                   -0.67975  -0.80262  -1.51421
  59                   -0.66450  -0.79860  -1.51471
  60                   -0.65423  -0.79644  -1.51251
  61                   -0.64765  -0.79603  -1.50865
  62                   -0.64305  -0.79721  -1.50439
  63                   -0.63855  -0.79975  -1.50146
  64                   -0.63384  -0.80331  -1.50177
  65                   -0.63187  -0.80744  -1.50536
  66                   -0.63415  -0.81168  -1.50980
  67                   -0.63903  -0.81585  -1.51347
  68                   -0.64511  -0.81976  -1.51635
  69                   -0.65181  -0.82322  -1.51882
  70                   -0.65892  -0.82600  -1.52120
  71                   -0.66639  -0.82787  -1.52367
  72                   -0.67428  -0.82853  -1.52638
  73                   -0.68271  -0.82765  -1.52940
  74                   -0.69189  -0.82500  -1.53267
 --------------------------------------------------------------------------
 
 Total number of points:                   73
 Total number of gradient calculations:    74
 Total number of Hessian calculations:     74
 IRC-IRC-IRC-IRC-IRC-IRC-IRC-IRC-IRC-IRC-IRC-IRC-IRC-IRC-IRC-IRC-IRC-IRC
                          Input orientation:                          
 ---------------------------------------------------------------------
 Center     Atomic      Atomic             Coordinates (Angstroms)
 Number     Number       Type             X           Y           Z
 ---------------------------------------------------------------------
      1          6           0       -2.474617   -1.082760    0.589072
      2          6           0        0.118725   -0.160866   -0.944803
      3          6           0        0.851176   -0.985320    0.082285
      4          8           0       -0.233365    0.959105   -0.966517
      5          8           0       -0.085087    1.757183    0.746301
      6          8           0        2.038425   -0.825896    0.207771
      7          1           0        0.317274    2.615919    0.510550
      8          1           0       -3.498910   -0.728696    0.441039
      9          1           0       -2.481700   -1.927965    1.284261
     10          1           0        0.246878   -1.746871    0.598738
     11          1           0       -1.879398   -0.262272    0.999721
     12          1           0       -2.084976   -1.412324   -0.380918
 ---------------------------------------------------------------------
                    Distance matrix (angstroms):
                    1          2          3          4          5
     1  C    0.000000
     2  C    3.150886   0.000000
     3  C    3.365595   1.507024   0.000000
     4  O    3.407679   1.174212   2.461099   0.000000
     5  O    3.714815   2.565207   2.973017   1.895432   0.000000
     6  O    4.536399   2.335796   1.204459   3.118688   3.386978
     7  H    4.634765   3.141339   3.665704   2.286911   0.977189
     8  H    1.093824   3.915389   4.372392   3.936199   4.234025
     9  H    1.094400   3.854034   3.666250   4.296066   4.428710
    10  H    2.801370   2.216835   1.100845   3.162746   3.522836
    11  H    1.093672   2.789974   2.969937   2.840296   2.713296
    12  H    1.096044   2.596230   3.002978   3.065137   3.913561
                    6          7          8          9         10
     6  O    0.000000
     7  H    3.860068   0.000000
     8  H    5.543098   5.074893   0.000000
     9  H    4.775449   5.392566   1.784373   0.000000
    10  H    2.051997   4.364249   3.884904   2.819197   0.000000
    11  H    4.036607   3.653579   1.775527   1.793952   2.624094
    12  H    4.206292   4.774124   1.772616   1.787763   2.551312
                   11         12
    11  H    0.000000
    12  H    1.808603   0.000000
 Symmetry turned off by external request.
 Stoichiometry    C3H6O3
 Framework group  C1[X(C3H6O3)]
 Deg. of freedom    30
 Full point group                 C1      NOp   1
 Rotational constants (GHZ):           3.1783956           2.3057829           1.7089698

 **********************************************************************

            Population analysis using the SCF Density.

 **********************************************************************

 Alpha  occ. eigenvalues --  -19.31988 -19.22271 -19.15283 -10.35292 -10.34353
 Alpha  occ. eigenvalues --  -10.18716  -1.18605  -1.11627  -0.93846  -0.75077
 Alpha  occ. eigenvalues --   -0.71187  -0.60851  -0.56601  -0.51975  -0.50806
 Alpha  occ. eigenvalues --   -0.48729  -0.44183  -0.41646  -0.41126  -0.40893
 Alpha  occ. eigenvalues --   -0.40314  -0.34054  -0.28140  -0.26437
 Alpha virt. eigenvalues --   -0.14641  -0.09567  -0.05994   0.00335   0.02652
 Alpha virt. eigenvalues --    0.03207   0.03698   0.05924   0.06988   0.07253
 Alpha virt. eigenvalues --    0.08169   0.08607   0.09634   0.11700   0.13975
 Alpha virt. eigenvalues --    0.14233   0.16308   0.18053   0.19216   0.19596
 Alpha virt. eigenvalues --    0.21412   0.21977   0.23037   0.24459   0.25422
 Alpha virt. eigenvalues --    0.25787   0.27139   0.27794   0.28679   0.30665
 Alpha virt. eigenvalues --    0.32802   0.33973   0.37128   0.38667   0.39601
 Alpha virt. eigenvalues --    0.46384   0.60222   0.63455   0.64464   0.65509
 Alpha virt. eigenvalues --    0.69276   0.71673   0.74842   0.76640   0.79869
 Alpha virt. eigenvalues --    0.91556   0.95068   0.96242   0.98374   1.02418
 Alpha virt. eigenvalues --    1.04278   1.06059   1.10633   1.12356   1.17550
 Alpha virt. eigenvalues --    1.17651   1.19059   1.19393   1.22949   1.24240
 Alpha virt. eigenvalues --    1.25298   1.27019   1.32032   1.39439   1.43698
 Alpha virt. eigenvalues --    1.44756   1.50387   1.51377   1.54104   1.62383
 Alpha virt. eigenvalues --    1.63600   1.64860   1.70922   1.72730   1.75171
 Alpha virt. eigenvalues --    1.78822   1.81429   1.83083   1.87228   1.93059
 Alpha virt. eigenvalues --    2.01435   2.04403   2.24855   2.25123   2.26315
 Alpha virt. eigenvalues --    2.30906   2.33881   2.41964   2.46223   2.51017
 Alpha virt. eigenvalues --    2.58526   2.67689   2.73910   2.92521   3.02747
 Alpha virt. eigenvalues --    3.07311   3.98667   4.13677   4.15008   4.21903
 Alpha virt. eigenvalues --    4.27091   4.41237
          Condensed to atoms (all electrons):
               1          2          3          4          5          6
     1  C    5.368337  -0.013908   0.006678  -0.003048  -0.010159   0.000758
     2  C   -0.013908   5.953062  -0.327795   0.461389   0.052481  -0.115211
     3  C    0.006678  -0.327795   5.270343   0.000150  -0.076994   0.485882
     4  O   -0.003048   0.461389   0.000150   7.582889  -0.036205  -0.003142
     5  O   -0.010159   0.052481  -0.076994  -0.036205   8.641277  -0.000451
     6  O    0.000758  -0.115211   0.485882  -0.003142  -0.000451   7.966348
     7  H    0.000390   0.011389  -0.003083   0.004026   0.161585  -0.000798
     8  H    0.376725  -0.000947  -0.000521  -0.000082   0.000350  -0.000014
     9  H    0.374025  -0.000517  -0.001769  -0.000219   0.000222   0.000031
    10  H    0.001354  -0.065045   0.345837   0.000813   0.001511  -0.047591
    11  H    0.366612  -0.009278   0.015216   0.002626   0.000208  -0.000237
    12  H    0.363112   0.023719  -0.015289  -0.002359  -0.000039   0.000299
               7          8          9         10         11         12
     1  C    0.000390   0.376725   0.374025   0.001354   0.366612   0.363112
     2  C    0.011389  -0.000947  -0.000517  -0.065045  -0.009278   0.023719
     3  C   -0.003083  -0.000521  -0.001769   0.345837   0.015216  -0.015289
     4  O    0.004026  -0.000082  -0.000219   0.000813   0.002626  -0.002359
     5  O    0.161585   0.000350   0.000222   0.001511   0.000208  -0.000039
     6  O   -0.000798  -0.000014   0.000031  -0.047591  -0.000237   0.000299
     7  H    0.379990  -0.000002  -0.000001  -0.000020  -0.000017  -0.000001
     8  H   -0.000002   0.466900  -0.021008   0.000092  -0.019035  -0.022689
     9  H   -0.000001  -0.021008   0.494165   0.000009  -0.024022  -0.028517
    10  H   -0.000020   0.000092   0.000009   0.543269  -0.001696   0.000030
    11  H   -0.000017  -0.019035  -0.024022  -0.001696   0.453167  -0.028651
    12  H   -0.000001  -0.022689  -0.028517   0.000030  -0.028651   0.525942
 Mulliken charges:
               1
     1  C   -0.830874
     2  C    0.030662
     3  C    0.301347
     4  O   -0.006839
     5  O   -0.733786
     6  O   -0.285875
     7  H    0.446543
     8  H    0.220231
     9  H    0.207601
    10  H    0.221438
    11  H    0.245108
    12  H    0.184444
 Sum of Mulliken charges =  -0.00000
 Mulliken charges with hydrogens summed into heavy atoms:
               1
     1  C    0.026510
     2  C    0.030662
     3  C    0.522785
     4  O   -0.006839
     5  O   -0.287243
     6  O   -0.285875
 APT charges:
               1
     1  C   -1.506318
     2  C    0.039222
     3  C   -0.209152
     4  O    0.052012
     5  O   -0.993547
     6  O   -0.051685
     7  H    0.708364
     8  H    0.642005
     9  H    0.521242
    10  H    0.438384
    11  H    0.133138
    12  H    0.226336
 Sum of APT charges =  -0.00000
 APT charges with hydrogens summed into heavy atoms:
               1
     1  C    0.016402
     2  C    0.039222
     3  C    0.229232
     4  O    0.052012
     5  O   -0.285183
     6  O   -0.051685
 Electronic spatial extent (au):  <R**2>=            766.9460
 Charge=              0.0000 electrons
 Dipole moment (field-independent basis, Debye):
    X=             -0.9130    Y=             -1.7632    Z=             -1.2259  Tot=              2.3335
 Quadrupole moment (field-independent basis, Debye-Ang):
   XX=            -41.0371   YY=            -32.4585   ZZ=            -38.5013
   XY=              3.6414   XZ=             -0.8370   YZ=             -2.4453
 Traceless Quadrupole moment (field-independent basis, Debye-Ang):
   XX=             -3.7048   YY=              4.8738   ZZ=             -1.1690
   XY=              3.6414   XZ=             -0.8370   YZ=             -2.4453
 Octapole moment (field-independent basis, Debye-Ang**2):
  XXX=              2.2521  YYY=             22.4370  ZZZ=             -4.5365  XYY=             12.3510
  XXY=              7.5254  XXZ=             -3.2317  XZZ=              7.2363  YZZ=              1.0566
  YYZ=             -1.0884  XYZ=              2.3539
 Hexadecapole moment (field-independent basis, Debye-Ang**3):
 XXXX=           -526.1699 YYYY=           -269.6013 ZZZZ=           -150.7289 XXXY=            -11.7925
 XXXZ=             22.6591 YYYX=             -7.1286 YYYZ=              6.0959 ZZZX=             27.5943
 ZZZY=              2.3411 XXYY=           -147.8461 XXZZ=           -111.2085 YYZZ=            -80.9436
 XXYZ=              2.3369 YYXZ=             10.1510 ZZXY=             -4.9532
 N-N= 2.208645291490D+02 E-N=-1.245413701688D+03  KE= 3.402570749883D+02
  Exact polarizability:   0.000   0.000   0.000   0.000   0.000   0.000
 Approx polarizability:  87.674 -29.058 173.821  -5.839  67.732 116.432

 This type of calculation cannot be archived.


          EVOLUTION
 IN THE BEGINNING GOD MADE MAN.
 HE WORKED THE DIRT WITH HIS HANDS.
 THEN GOD DECIDED TO GIVE MAN SCIENCE,
 MAN SHOULD BE USEFUL (LIKE AN APPLIANCE.)
 BUT SOON MAN'S KNOWLEDGE GREW TOO GREAT,
 TO THE HEADING SCIENCE HE COULDN'T RELATE
 SO GOD SAID "LETS HAVE DIFFERENT FIELDS,
 WE'LL DIVIDE THEM UP, SEE WHAT IT YIELDS."
 ENTER PHYSICS, CHEMISTRY, BIO
 THEY SPRANG UP AROUND THE NILE.
 BUT CHEMISTRY SURPASSED THE REST
 FAR AND AWAY IT WAS THE BEST.
 EXPERIMENT WAS GOD'S DECREE
 EXPERIMENT DID CHEMISTS WITH LOTS OF GLEE
 BUT SOON THEIR TESTS BEGAN TO BOG,
 THEY FOUND THEMSELVES DEEP IN A FOG.
 "GIVE US SOME HELP" THEY CRIED TO GOD.
 GOD LOOKED AROUND, THEN GAVE THE NOD.
 ENTER EINSTEIN, HEISENBERG, BOHR,
 REACTION PATHS WERE CLEAR ONCE MORE.
 WITH THEORISTS GOD SEND DIRECTION
 AND THEN HE STOPPED, HE'D MADE PERFECTION.
          -- THOMAS A. HOLME, 1981
 Job cpu time:       0 days  5 hours 40 minutes 56.9 seconds.
 Elapsed time:       0 days  0 hours 21 minutes 49.9 seconds.
 File lengths (MBytes):  RWF=     28 Int=      0 D2E=      0 Chk=      4 Scr=      1
 Normal termination of Gaussian 16 at Wed Dec 23 22:38:41 2020.
