 Entering Gaussian System, Link 0=g16
 Initial command:
 /apps/cent7/gaussian/g16-B.01/g16-haswell/g16/l1.exe "/scratch/bell/zhao922/YARP/paper-example/KHP-network/pp_0/IRC-folder/Gau-37090.inp" -scrdir="/scratch/bell/zhao922/YARP/paper-example/KHP-network/pp_0/IRC-folder/"
 Entering Link 1 = /apps/cent7/gaussian/g16-B.01/g16-haswell/g16/l1.exe PID=     37093.
  
 Copyright (c) 1988-2017, Gaussian, Inc.  All Rights Reserved.
  
 This is part of the Gaussian(R) 16 program.  It is based on
 the Gaussian(R) 09 system (copyright 2009, Gaussian, Inc.),
 the Gaussian(R) 03 system (copyright 2003, Gaussian, Inc.),
 the Gaussian(R) 98 system (copyright 1998, Gaussian, Inc.),
 the Gaussian(R) 94 system (copyright 1995, Gaussian, Inc.),
 the Gaussian 92(TM) system (copyright 1992, Gaussian, Inc.),
 the Gaussian 90(TM) system (copyright 1990, Gaussian, Inc.),
 the Gaussian 88(TM) system (copyright 1988, Gaussian, Inc.),
 the Gaussian 86(TM) system (copyright 1986, Carnegie Mellon
 University), and the Gaussian 82(TM) system (copyright 1983,
 Carnegie Mellon University). Gaussian is a federally registered
 trademark of Gaussian, Inc.
  
 This software contains proprietary and confidential information,
 including trade secrets, belonging to Gaussian, Inc.
  
 This software is provided under written license and may be
 used, copied, transmitted, or stored only in accord with that
 written license.
  
 The following legend is applicable only to US Government
 contracts under FAR:
  
                    RESTRICTED RIGHTS LEGEND
  
 Use, reproduction and disclosure by the US Government is
 subject to restrictions as set forth in subparagraphs (a)
 and (c) of the Commercial Computer Software - Restricted
 Rights clause in FAR 52.227-19.
  
 Gaussian, Inc.
 340 Quinnipiac St., Bldg. 40, Wallingford CT 06492
  
  
 ---------------------------------------------------------------
 Warning -- This program may not be used in any manner that
 competes with the business of Gaussian, Inc. or will provide
 assistance to any competitor of Gaussian, Inc.  The licensee
 of this program is prohibited from giving any competitor of
 Gaussian, Inc. access to this program.  By using this program,
 the user acknowledges that Gaussian, Inc. is engaged in the
 business of creating and licensing software in the field of
 computational chemistry and represents and warrants to the
 licensee that it is not a competitor of Gaussian, Inc. and that
 it will not use this program in any manner prohibited above.
 ---------------------------------------------------------------
  

 Cite this work as:
 Gaussian 16, Revision B.01,
 M. J. Frisch, G. W. Trucks, H. B. Schlegel, G. E. Scuseria, 
 M. A. Robb, J. R. Cheeseman, G. Scalmani, V. Barone, 
 G. A. Petersson, H. Nakatsuji, X. Li, M. Caricato, A. V. Marenich, 
 J. Bloino, B. G. Janesko, R. Gomperts, B. Mennucci, H. P. Hratchian, 
 J. V. Ortiz, A. F. Izmaylov, J. L. Sonnenberg, D. Williams-Young, 
 F. Ding, F. Lipparini, F. Egidi, J. Goings, B. Peng, A. Petrone, 
 T. Henderson, D. Ranasinghe, V. G. Zakrzewski, J. Gao, N. Rega, 
 G. Zheng, W. Liang, M. Hada, M. Ehara, K. Toyota, R. Fukuda, 
 J. Hasegawa, M. Ishida, T. Nakajima, Y. Honda, O. Kitao, H. Nakai, 
 T. Vreven, K. Throssell, J. A. Montgomery, Jr., J. E. Peralta, 
 F. Ogliaro, M. J. Bearpark, J. J. Heyd, E. N. Brothers, K. N. Kudin, 
 V. N. Staroverov, T. A. Keith, R. Kobayashi, J. Normand, 
 K. Raghavachari, A. P. Rendell, J. C. Burant, S. S. Iyengar, 
 J. Tomasi, M. Cossi, J. M. Millam, M. Klene, C. Adamo, R. Cammi, 
 J. W. Ochterski, R. L. Martin, K. Morokuma, O. Farkas, 
 J. B. Foresman, and D. J. Fox, Gaussian, Inc., Wallingford CT, 2016.
 
 ******************************************
 Gaussian 16:  ES64L-G16RevB.01 20-Dec-2017
                23-Dec-2020 
 ******************************************
 %NProcShared=16
 Will use up to   16 processors via shared memory.
 %Mem=6GB
 ----------------------------------------------------------------------
 # B3LYP/6-31+G* IRC=(CALCALL, maxpoints=40, StepSize=15, maxcyc=100, R
 eport=Cartesians)
 ----------------------------------------------------------------------
 1/6=100,10=4,18=10,26=3,38=1,39=15,42=40,44=3,71=1,129=10,172=1/1,23;
 2/12=2,17=6,18=5,29=1,40=1/2;
 3/5=1,6=6,7=11,11=2,25=1,30=1,71=2,74=-5,140=1/1,2,3;
 4//1;
 5/5=2,38=5/2;
 8/6=4,10=90,11=11/1;
 11/6=1,8=1,9=11,15=111,16=1/1,2,10;
 10/6=1,13=1/2;
 6/7=2,8=2,9=2,10=2,18=1,28=1/1;
 7/10=1,25=1/1,2,3,16;
 1/6=100,10=4,18=10,26=3,39=15,42=40,44=3,71=1,129=10/23(2);
 2/29=1/2;
 99/5=20/99;
 2/29=1/2;
 3/5=1,6=6,7=11,11=2,25=1,30=1,71=2,74=-5,140=1/1,2,3;
 4/5=5,16=3,69=1/1;
 5/5=2,38=5/2;
 8/6=4,10=90,11=11/1;
 11/6=1,8=1,9=11,15=111,16=1/1,2,10;
 10/6=1,13=1/2;
 7/10=1,25=1/1,2,3,16;
 1/6=100,10=4,18=10,26=3,39=15,42=40,44=3,71=1,129=10/23(-8);
 2/29=1/2;
 6/7=2,8=2,9=2,10=2,18=1,19=2,28=1/1;
 99/5=20/99;
 ----------
 pp_9_2 IRC
 ----------
 Symbolic Z-matrix:
 Charge =  0 Multiplicity = 1
 C                    -0.61155   0.54849   0.37428 
 C                     0.76898   0.47441  -0.20722 
 C                     1.7105   -0.54029   0.11798 
 O                    -1.46097  -0.29198  -0.42872 
 O                    -2.82793  -0.09725   0.06796 
 O                     2.90381  -0.08703   0.01166 
 H                    -3.07032  -1.02029   0.26243 
 H                    -0.9942    1.57491   0.33418 
 H                    -0.64164   0.20643   1.41756 
 H                     1.56     -1.56973   0.45574 
 H                     2.20338   0.99903  -0.11307 
 H                     0.81596   0.72406  -1.27429 
 
 IRC-IRC-IRC-IRC-IRC-IRC-IRC-IRC-IRC-IRC-IRC-IRC-IRC-IRC-IRC-IRC-IRC-IRC
 ------------------------------------------------------------------------
 INPUT DATA FOR L123
 ------------------------------------------------------------------------
 GENERAL PARAMETERS:
 Follow reaction path in both directions.
 Maximum points per path      =  40
 Step size                    =   0.150 bohr
 Integration scheme           = HPC                                 
    Redo corrector integration= Yes                                 
    DWI Weight Power          =  2
    DWI will use Hessian update vectors when possible.
    Max correction cycles     = 100
 Initial Hessian              = CalcFC
 Hessian evaluation           = Analytic at all predictor steps
                              = Update at all corrector steps
 Hessian updating method      = Bofill                              
 ------------------------------------------------------------------------
 IRC-IRC-IRC-IRC-IRC-IRC-IRC-IRC-IRC-IRC-IRC-IRC-IRC-IRC-IRC-IRC-IRC-IRC
                          Input orientation:                          
 ---------------------------------------------------------------------
 Center     Atomic      Atomic             Coordinates (Angstroms)
 Number     Number       Type             X           Y           Z
 ---------------------------------------------------------------------
      1          6           0       -0.611545    0.548490    0.374278
      2          6           0        0.768975    0.474408   -0.207220
      3          6           0        1.710496   -0.540294    0.117975
      4          8           0       -1.460966   -0.291975   -0.428718
      5          8           0       -2.827934   -0.097254    0.067962
      6          8           0        2.903807   -0.087025    0.011663
      7          1           0       -3.070320   -1.020286    0.262433
      8          1           0       -0.994201    1.574914    0.334176
      9          1           0       -0.641636    0.206432    1.417563
     10          1           0        1.559999   -1.569732    0.455740
     11          1           0        2.203377    0.999025   -0.113070
     12          1           0        0.815960    0.724060   -1.274291
 ---------------------------------------------------------------------
                    Distance matrix (angstroms):
                    1          2          3          4          5
     1  C    0.000000
     2  C    1.499821   0.000000
     3  C    2.577405   1.421912   0.000000
     4  O    1.439687   2.368341   3.227802   0.000000
     5  O    2.328775   3.652434   4.560278   1.467382   0.000000
     6  O    3.590692   2.218248   1.280916   4.391718   5.732027
     7  H    2.918757   4.146670   4.807022   1.896878   0.973939
     8  H    1.096166   2.147793   3.440383   2.070061   2.495915
     9  H    1.098341   2.168307   2.789095   2.080496   2.587189
    10  H    3.034651   2.289922   1.093836   3.397228   4.644623
    11  H    2.892106   1.530228   1.632733   3.897913   5.152542
    12  H    2.187779   1.096893   2.082592   2.632815   3.969151
                    6          7          8          9         10
     6  O    0.000000
     7  H    6.051781   0.000000
     8  H    4.249767   3.324226   0.000000
     9  H    3.825289   2.955955   1.780666   0.000000
    10  H    2.049743   4.666810   4.053087   2.987818   0.000000
    11  H    1.298332   5.659549   3.279662   3.326431   2.708504
    12  H    2.582759   4.528514   2.566671   3.104610   2.967841
                   11         12
    11  H    0.000000
    12  H    1.830018   0.000000
 Symmetry turned off by external request.
 Stoichiometry    C3H6O3
 Framework group  C1[X(C3H6O3)]
 Deg. of freedom    30
 Full point group                 C1      NOp   1
 Rotational constants (GHZ):          17.7610692           1.3591213           1.3238090
 Standard basis: 6-31+G(d) (6D, 7F)
   126 basis functions,   216 primitive gaussians,   126 cartesian basis functions
    24 alpha electrons       24 beta electrons
       nuclear repulsion energy       230.9678801080 Hartrees.
 NAtoms=   12 NActive=   12 NUniq=   12 SFac= 1.00D+00 NAtFMM=   60 NAOKFM=F Big=F
 Integral buffers will be    131072 words long.
 Raffenetti 2 integral format.
 Two-electron integral symmetry is turned off.
 One-electron integrals computed using PRISM.
 NBasis=   126 RedAO= T EigKep=  8.35D-05  NBF=   126
 NBsUse=   126 1.00D-06 EigRej= -1.00D+00 NBFU=   126
 ExpMin= 4.38D-02 ExpMax= 5.48D+03 ExpMxC= 8.25D+02 IAcc=3 IRadAn=         5 AccDes= 0.00D+00
 Harris functional with IExCor=  402 and IRadAn=       5 diagonalized for initial guess.
 HarFok:  IExCor=  402 AccDes= 0.00D+00 IRadAn=         5 IDoV= 1 UseB2=F ITyADJ=14
 ICtDFT=  3500011 ScaDFX=  1.000000  1.000000  1.000000  1.000000
 FoFCou: FMM=F IPFlag=           0 FMFlag=      100000 FMFlg1=           0
         NFxFlg=           0 DoJE=T BraDBF=F KetDBF=T FulRan=T
         wScrn=  0.000000 ICntrl=       500 IOpCl=  0 I1Cent=   200000004 NGrid=           0
         NMat0=    1 NMatS0=      1 NMatT0=    0 NMatD0=    1 NMtDS0=    0 NMtDT0=    0
 Symmetry not used in FoFCou.
 Keep R1 ints in memory in canonical form, NReq=47237243.
 Requested convergence on RMS density matrix=1.00D-08 within 128 cycles.
 Requested convergence on MAX density matrix=1.00D-06.
 Requested convergence on             energy=1.00D-06.
 No special actions if energy rises.
 SCF Done:  E(RB3LYP) =  -343.389178276     A.U. after   13 cycles
            NFock= 13  Conv=0.41D-08     -V/T= 2.0091
 DoSCS=F DFT=T ScalE2(SS,OS)=  1.000000  1.000000
 Range of M.O.s used for correlation:     1   126
 NBasis=   126 NAE=    24 NBE=    24 NFC=     0 NFV=     0
 NROrb=    126 NOA=    24 NOB=    24 NVA=   102 NVB=   102

 **** Warning!!: The largest alpha MO coefficient is  0.38335607D+02

 Symmetrizing basis deriv contribution to polar:
 IMax=3 JMax=2 DiffMx= 0.00D+00
 G2DrvN: will do    13 centers at a time, making    1 passes.
 Calling FoFCou, ICntrl=  3107 FMM=F I1Cent=   0 AccDes= 0.00D+00.
 End of G2Drv F.D. properties file   721 does not exist.
 End of G2Drv F.D. properties file   722 does not exist.
 End of G2Drv F.D. properties file   788 does not exist.
          IDoAtm=111111111111
          Differentiating once with respect to nuclear coordinates.
 Keep R1 ints in memory in canonical form, NReq=47193265.
          There are    39 degrees of freedom in the 1st order CPHF.  IDoFFX=6 NUNeed=     0.
     33 vectors produced by pass  0 Test12= 6.28D-15 2.56D-09 XBig12= 1.51D-01 1.84D-01.
 AX will form    33 AO Fock derivatives at one time.
     33 vectors produced by pass  1 Test12= 6.28D-15 2.56D-09 XBig12= 3.59D-02 6.05D-02.
     33 vectors produced by pass  2 Test12= 6.28D-15 2.56D-09 XBig12= 6.48D-04 4.75D-03.
     33 vectors produced by pass  3 Test12= 6.28D-15 2.56D-09 XBig12= 3.65D-06 3.20D-04.
     33 vectors produced by pass  4 Test12= 6.28D-15 2.56D-09 XBig12= 7.27D-09 1.19D-05.
     27 vectors produced by pass  5 Test12= 6.28D-15 2.56D-09 XBig12= 7.44D-12 3.50D-07.
      4 vectors produced by pass  6 Test12= 6.28D-15 2.56D-09 XBig12= 6.97D-15 1.02D-08.
 InvSVY:  IOpt=1 It=  1 EMax= 2.89D-15
 Solved reduced A of dimension   196 with    33 vectors.
 End of Minotr F.D. properties file   721 does not exist.
 End of Minotr F.D. properties file   722 does not exist.
 End of Minotr F.D. properties file   788 does not exist.

 **********************************************************************

            Population analysis using the SCF Density.

 **********************************************************************

 Alpha  occ. eigenvalues --  -19.21771 -19.21588 -19.20856 -10.31456 -10.25145
 Alpha  occ. eigenvalues --  -10.20099  -1.11962  -1.09700  -0.92557  -0.77842
 Alpha  occ. eigenvalues --   -0.67003  -0.62459  -0.54260  -0.51850  -0.49370
 Alpha  occ. eigenvalues --   -0.47446  -0.45323  -0.43451  -0.41100  -0.37806
 Alpha  occ. eigenvalues --   -0.35050  -0.32539  -0.27052  -0.25008
 Alpha virt. eigenvalues --   -0.07904  -0.01234   0.00659   0.01665   0.02936
 Alpha virt. eigenvalues --    0.03227   0.04763   0.06322   0.06582   0.08390
 Alpha virt. eigenvalues --    0.09780   0.10334   0.11854   0.13247   0.14548
 Alpha virt. eigenvalues --    0.16433   0.17226   0.18272   0.19400   0.21426
 Alpha virt. eigenvalues --    0.22034   0.22652   0.24225   0.24450   0.25153
 Alpha virt. eigenvalues --    0.25633   0.27422   0.29255   0.29989   0.31890
 Alpha virt. eigenvalues --    0.33124   0.33994   0.35155   0.36323   0.40394
 Alpha virt. eigenvalues --    0.42887   0.60765   0.64915   0.66955   0.68646
 Alpha virt. eigenvalues --    0.72013   0.74384   0.77745   0.82309   0.85887
 Alpha virt. eigenvalues --    0.92441   0.93443   0.94402   1.00176   1.00546
 Alpha virt. eigenvalues --    1.02748   1.06875   1.08885   1.14284   1.14941
 Alpha virt. eigenvalues --    1.17604   1.18618   1.22209   1.24036   1.29367
 Alpha virt. eigenvalues --    1.32540   1.32885   1.37230   1.47790   1.50064
 Alpha virt. eigenvalues --    1.51702   1.53310   1.60429   1.63672   1.67016
 Alpha virt. eigenvalues --    1.68784   1.71198   1.77279   1.81057   1.85167
 Alpha virt. eigenvalues --    1.89197   1.93578   1.95021   1.98164   2.04927
 Alpha virt. eigenvalues --    2.10215   2.17537   2.21589   2.23458   2.27296
 Alpha virt. eigenvalues --    2.34642   2.37440   2.46502   2.48878   2.53514
 Alpha virt. eigenvalues --    2.69627   2.73898   2.83191   2.91257   2.95912
 Alpha virt. eigenvalues --    3.16677   3.93874   4.08968   4.21474   4.26962
 Alpha virt. eigenvalues --    4.35428   4.48251
          Condensed to atoms (all electrons):
               1          2          3          4          5          6
     1  C    5.760177  -0.405207  -0.045618   0.144304   0.011006   0.021714
     2  C   -0.405207   6.649567   0.282160  -0.015977  -0.032555  -0.314511
     3  C   -0.045618   0.282160   4.953442  -0.033366   0.008899   0.312411
     4  O    0.144304  -0.015977  -0.033366   8.136709   0.061531  -0.002382
     5  O    0.011006  -0.032555   0.008899   0.061531   8.274037   0.000427
     6  O    0.021714  -0.314511   0.312411  -0.002382   0.000427   8.409565
     7  H    0.005382  -0.000087  -0.000111  -0.032534   0.192637  -0.000009
     8  H    0.362965  -0.000884  -0.002285  -0.041407  -0.002838   0.000656
     9  H    0.447560  -0.102076   0.007970  -0.065186   0.005319   0.000162
    10  H    0.041960  -0.100185   0.385174   0.000647   0.000064  -0.059343
    11  H    0.059662   0.180304  -0.088021   0.001632  -0.000103   0.008524
    12  H   -0.023731   0.351885  -0.034473   0.000022   0.000681  -0.003557
               7          8          9         10         11         12
     1  C    0.005382   0.362965   0.447560   0.041960   0.059662  -0.023731
     2  C   -0.000087  -0.000884  -0.102076  -0.100185   0.180304   0.351885
     3  C   -0.000111  -0.002285   0.007970   0.385174  -0.088021  -0.034473
     4  O   -0.032534  -0.041407  -0.065186   0.000647   0.001632   0.000022
     5  O    0.192637  -0.002838   0.005319   0.000064  -0.000103   0.000681
     6  O   -0.000009   0.000656   0.000162  -0.059343   0.008524  -0.003557
     7  H    0.368763  -0.000554   0.001450  -0.000003   0.000000   0.000004
     8  H   -0.000554   0.533338  -0.047947  -0.000092  -0.001365  -0.004798
     9  H    0.001450  -0.047947   0.567760   0.000374   0.000275   0.003905
    10  H   -0.000003  -0.000092   0.000374   0.507001   0.012824   0.001665
    11  H    0.000000  -0.001365   0.000275   0.012824   0.487217  -0.004194
    12  H    0.000004  -0.004798   0.003905   0.001665  -0.004194   0.450905
 Mulliken charges:
               1
     1  C   -0.380174
     2  C   -0.492435
     3  C    0.253817
     4  O   -0.153994
     5  O   -0.519106
     6  O   -0.373659
     7  H    0.465062
     8  H    0.205213
     9  H    0.180434
    10  H    0.209912
    11  H    0.343244
    12  H    0.261685
 Sum of Mulliken charges =  -0.00000
 Mulliken charges with hydrogens summed into heavy atoms:
               1
     1  C    0.005472
     2  C   -0.230749
     3  C    0.463730
     4  O   -0.153994
     5  O   -0.054044
     6  O   -0.030415
 APT charges:
               1
     1  C   -0.924384
     2  C   -0.723066
     3  C   -0.062325
     4  O   -0.100809
     5  O   -0.819087
     6  O   -0.208237
     7  H    0.704628
     8  H    0.479759
     9  H    0.381278
    10  H    0.431250
    11  H    0.378183
    12  H    0.462809
 Sum of APT charges =  -0.00000
 APT charges with hydrogens summed into heavy atoms:
               1
     1  C   -0.063347
     2  C   -0.260257
     3  C    0.368925
     4  O   -0.100809
     5  O   -0.114459
     6  O    0.169946
 Electronic spatial extent (au):  <R**2>=            836.6918
 Charge=             -0.0000 electrons
 Dipole moment (field-independent basis, Debye):
    X=             -0.2032    Y=             -1.3851    Z=              1.1699  Tot=              1.8244
 Quadrupole moment (field-independent basis, Debye-Ang):
   XX=            -44.5826   YY=            -32.7059   ZZ=            -36.3549
   XY=              3.7776   XZ=             -2.6268   YZ=             -2.1320
 Traceless Quadrupole moment (field-independent basis, Debye-Ang):
   XX=             -6.7015   YY=              5.1752   ZZ=              1.5263
   XY=              3.7776   XZ=             -2.6268   YZ=             -2.1320
 Octapole moment (field-independent basis, Debye-Ang**2):
  XXX=            -41.2492  YYY=             -8.4294  ZZZ=             -1.0386  XYY=             -6.1801
  XXY=            -15.3983  XXZ=              5.1185  XZZ=             -0.0024  YZZ=             -0.9897
  YYZ=              0.7849  XYZ=              0.5367
 Hexadecapole moment (field-independent basis, Debye-Ang**3):
 XXXX=           -948.1070 YYYY=            -91.9028 ZZZZ=            -65.7869 XXXY=             72.9746
 XXXZ=            -15.7650 YYYX=              2.7151 YYYZ=             -2.9403 ZZZX=             -0.9494
 ZZZY=             -2.6080 XXYY=           -131.0240 XXZZ=           -157.3931 YYZZ=            -27.0735
 XXYZ=             -8.4226 YYXZ=             -0.8039 ZZXY=              1.6340
 N-N= 2.309678801080D+02 E-N=-1.266344455968D+03  KE= 3.402891946448D+02
  Exact polarizability:   0.000   0.000   0.000   0.000   0.000   0.000
 Approx polarizability: 117.927  -2.189  73.302  -1.753  -3.864  55.864
 Calling FoFJK, ICntrl=    100127 FMM=F ISym2X=0 I1Cent= 0 IOpClX= 0 NMat=1 NMatS=1 NMatT=0.
 -------------------------------------------------------------------
 Center     Atomic                   Forces (Hartrees/Bohr)
 Number     Number              X              Y              Z
 -------------------------------------------------------------------
      1        6          -0.000008799    0.000003632   -0.000003129
      2        6           0.000005023   -0.000006880   -0.000006819
      3        6          -0.000006481    0.000001692    0.000003599
      4        8          -0.000000832    0.000002457    0.000004342
      5        8           0.000003581    0.000000657   -0.000001603
      6        8           0.000007061    0.000003844   -0.000001237
      7        1           0.000000004   -0.000000458    0.000000996
      8        1          -0.000003002    0.000000218    0.000003171
      9        1          -0.000000511   -0.000001321    0.000002487
     10        1          -0.000001028    0.000000294   -0.000001074
     11        1           0.000001866   -0.000002034   -0.000001087
     12        1           0.000003119   -0.000002102    0.000000353
 -------------------------------------------------------------------
 Cartesian Forces:  Max     0.000008799 RMS     0.000003491
 IRC-IRC-IRC-IRC-IRC-IRC-IRC-IRC-IRC-IRC-IRC-IRC-IRC-IRC-IRC-IRC-IRC-IRC
          ******** Start new reaction path calculation ********
 Supplied step size of   0.1500 bohr.
    Integration on MW PES will use step size of   0.1571 sqrt(amu)*bohr.
 Point Number:   0          Path Number:   1
 Calculating another point on the path.
 IRC-IRC-IRC-IRC-IRC-IRC-IRC-IRC-IRC-IRC-IRC-IRC-IRC-IRC-IRC-IRC-IRC-IRC
                          Input orientation:                          
 ---------------------------------------------------------------------
 Center     Atomic      Atomic             Coordinates (Angstroms)
 Number     Number       Type             X           Y           Z
 ---------------------------------------------------------------------
      1          6           0       -0.612991    0.559252    0.386618
      2          6           0        0.769725    0.487345   -0.195958
      3          6           0        1.713355   -0.530879    0.129456
      4          8           0       -1.462312   -0.281897   -0.416807
      5          8           0       -2.829201   -0.087193    0.079865
      6          8           0        2.902088   -0.080382    0.024468
      7          1           0       -3.071614   -1.010320    0.274325
      8          1           0       -0.996214    1.585109    0.346313
      9          1           0       -0.643126    0.216580    1.429580
     10          1           0        1.557409   -1.561718    0.463589
     11          1           0        2.131985    1.041897   -0.098869
     12          1           0        0.805919    0.721330   -1.267323
 ---------------------------------------------------------------------
                    Distance matrix (angstroms):
                    1          2          3          4          5
     1  C    0.000000
     2  C    1.502155   0.000000
     3  C    2.581938   1.425872   0.000000
     4  O    1.440266   2.371180   3.231911   0.000000
     5  O    2.328857   3.654920   4.564441   1.467303   0.000000
     6  O    3.591109   2.217628   1.275562   4.391277   5.731560
     7  H    2.919074   4.149705   4.811110   1.896870   0.974034
     8  H    1.095841   2.148880   3.444734   2.070099   2.495482
     9  H    1.098227   2.170676   2.793209   2.080550   2.587070
    10  H    3.035634   2.292184   1.094803   3.395843   4.643685
    11  H    2.829052   1.474010   1.643474   3.843498   5.091184
    12  H    2.185199   1.097216   2.083857   2.621967   3.960141
                    6          7          8          9         10
     6  O    0.000000
     7  H    6.050812   0.000000
     8  H    4.251377   3.323961   0.000000
     9  H    3.825057   2.955918   1.780733   0.000000
    10  H    2.048255   4.665588   4.054290   2.989621   0.000000
    11  H    1.366668   5.606095   3.206071   3.273918   2.724942
    12  H    2.589477   4.517803   2.568583   3.102867   2.961942
                   11         12
    11  H    0.000000
    12  H    1.796246   0.000000
 Symmetry turned off by external request.
 Stoichiometry    C3H6O3
 Framework group  C1[X(C3H6O3)]
 Deg. of freedom    30
 Full point group                 C1      NOp   1
 Rotational constants (GHZ):          17.6813176           1.3596210           1.3239255
 Standard basis: 6-31+G(d) (6D, 7F)
   126 basis functions,   216 primitive gaussians,   126 cartesian basis functions
    24 alpha electrons       24 beta electrons
       nuclear repulsion energy       230.9080364904 Hartrees.
 NAtoms=   12 NActive=   12 NUniq=   12 SFac= 1.00D+00 NAtFMM=   60 NAOKFM=F Big=F
 Integral buffers will be    131072 words long.
 Raffenetti 2 integral format.
 Two-electron integral symmetry is turned off.
 One-electron integrals computed using PRISM.
 NBasis=   126 RedAO= T EigKep=  8.36D-05  NBF=   126
 NBsUse=   126 1.00D-06 EigRej= -1.00D+00 NBFU=   126
 Initial guess from the checkpoint file:  "/scratch/bell/zhao922/YARP/paper-example/KHP-network/pp_0/IRC-folder/Gau-37093.chk"
 B after Tr=    -0.004350    0.019346    0.022382
         Rot=    1.000000    0.000078   -0.000030   -0.000163 Ang=   0.02 deg.
 ExpMin= 4.38D-02 ExpMax= 5.48D+03 ExpMxC= 8.25D+02 IAcc=3 IRadAn=         5 AccDes= 0.00D+00
 Harris functional with IExCor=  402 and IRadAn=       5 diagonalized for initial guess.
 HarFok:  IExCor=  402 AccDes= 0.00D+00 IRadAn=         5 IDoV= 1 UseB2=F ITyADJ=14
 ICtDFT=  3500011 ScaDFX=  1.000000  1.000000  1.000000  1.000000
 FoFCou: FMM=F IPFlag=           0 FMFlag=      100000 FMFlg1=           0
         NFxFlg=           0 DoJE=T BraDBF=F KetDBF=T FulRan=T
         wScrn=  0.000000 ICntrl=       500 IOpCl=  0 I1Cent=   200000004 NGrid=           0
         NMat0=    1 NMatS0=      1 NMatT0=    0 NMatD0=    1 NMtDS0=    0 NMtDT0=    0
 Symmetry not used in FoFCou.
 Keep R1 ints in memory in canonical form, NReq=47237243.
 Requested convergence on RMS density matrix=1.00D-08 within 128 cycles.
 Requested convergence on MAX density matrix=1.00D-06.
 Requested convergence on             energy=1.00D-06.
 No special actions if energy rises.
 SCF Done:  E(RB3LYP) =  -343.391280018     A.U. after   13 cycles
            NFock= 13  Conv=0.36D-08     -V/T= 2.0091
 DoSCS=F DFT=T ScalE2(SS,OS)=  1.000000  1.000000
 Range of M.O.s used for correlation:     1   126
 NBasis=   126 NAE=    24 NBE=    24 NFC=     0 NFV=     0
 NROrb=    126 NOA=    24 NOB=    24 NVA=   102 NVB=   102

 **** Warning!!: The largest alpha MO coefficient is  0.40929263D+02

 Symmetrizing basis deriv contribution to polar:
 IMax=3 JMax=2 DiffMx= 0.00D+00
 G2DrvN: will do    13 centers at a time, making    1 passes.
 Calling FoFCou, ICntrl=  3107 FMM=F I1Cent=   0 AccDes= 0.00D+00.
 End of G2Drv F.D. properties file   721 does not exist.
 End of G2Drv F.D. properties file   722 does not exist.
 End of G2Drv F.D. properties file   788 does not exist.
          IDoAtm=111111111111
          Differentiating once with respect to nuclear coordinates.
 Keep R1 ints in memory in canonical form, NReq=47193265.
          There are    39 degrees of freedom in the 1st order CPHF.  IDoFFX=6 NUNeed=     0.
     33 vectors produced by pass  0 Test12= 6.28D-15 2.56D-09 XBig12= 1.52D-01 1.72D-01.
 AX will form    33 AO Fock derivatives at one time.
     33 vectors produced by pass  1 Test12= 6.28D-15 2.56D-09 XBig12= 4.59D-02 6.89D-02.
     33 vectors produced by pass  2 Test12= 6.28D-15 2.56D-09 XBig12= 8.01D-04 4.65D-03.
     33 vectors produced by pass  3 Test12= 6.28D-15 2.56D-09 XBig12= 3.39D-06 2.91D-04.
     33 vectors produced by pass  4 Test12= 6.28D-15 2.56D-09 XBig12= 6.60D-09 1.05D-05.
     27 vectors produced by pass  5 Test12= 6.28D-15 2.56D-09 XBig12= 6.39D-12 3.60D-07.
      3 vectors produced by pass  6 Test12= 6.28D-15 2.56D-09 XBig12= 5.99D-15 1.25D-08.
 InvSVY:  IOpt=1 It=  1 EMax= 1.89D-15
 Solved reduced A of dimension   195 with    33 vectors.
 End of Minotr F.D. properties file   721 does not exist.
 End of Minotr F.D. properties file   722 does not exist.
 End of Minotr F.D. properties file   788 does not exist.
 Calling FoFJK, ICntrl=    100127 FMM=F ISym2X=0 I1Cent= 0 IOpClX= 0 NMat=1 NMatS=1 NMatT=0.
 -------------------------------------------------------------------
 Center     Atomic                   Forces (Hartrees/Bohr)
 Number     Number              X              Y              Z
 -------------------------------------------------------------------
      1        6          -0.000005546    0.002717117    0.001698826
      2        6           0.008862200    0.011020188   -0.003014963
      3        6           0.016307277   -0.002494347   -0.001522053
      4        8           0.000695109    0.000173328    0.000021327
      5        8           0.001125731    0.000077374   -0.000048639
      6        8          -0.000914165   -0.016826018    0.004209395
      7        1           0.000066197   -0.000034474   -0.000004547
      8        1          -0.000179153    0.000061230    0.000081442
      9        1           0.000008099    0.000028271    0.000028833
     10        1          -0.000437937   -0.000546345   -0.001108813
     11        1          -0.022749550    0.009768359    0.001068775
     12        1          -0.002778262   -0.003944681   -0.001409584
 -------------------------------------------------------------------
 Cartesian Forces:  Max     0.022749550 RMS     0.006321057
 IRC-IRC-IRC-IRC-IRC-IRC-IRC-IRC-IRC-IRC-IRC-IRC-IRC-IRC-IRC-IRC-IRC-IRC
 Pt  1 Step number   1 out of a maximum of 100
 Modified Bulirsch-Stoer Extrapolation Cycles:
    EPS =    0.000010000000000
      PEZero:  N= 2 I= 1 D=  4.09D-04 Err=  1.06D-03
      PEZero:  N= 3 I= 2 D=  4.09D-04 Err=  7.06D-04
      PEZero:  N= 3 I= 1 D=  8.18D-04 Err=  6.91D-08
 Maximum DWI energy   std dev =  0.000007402 at pt     1
 Maximum DWI gradient std dev =  0.007428416 at pt    42
 CORRECTOR INTEGRATION CONVERGENCE:
   Recorrection delta-x convergence threshold:    0.010000
   Delta-x Convergence Met
 Point Number:   1          Path Number:   1
   CHANGE IN THE REACTION COORDINATE =    0.15706
   NET REACTION COORDINATE UP TO THIS POINT =    0.15706
  # OF POINTS ALONG THE PATH =   1
  # OF STEPS =   1

 Calculating another point on the path.
 IRC-IRC-IRC-IRC-IRC-IRC-IRC-IRC-IRC-IRC-IRC-IRC-IRC-IRC-IRC-IRC-IRC-IRC
                          Input orientation:                          
 ---------------------------------------------------------------------
 Center     Atomic      Atomic             Coordinates (Angstroms)
 Number     Number       Type             X           Y           Z
 ---------------------------------------------------------------------
      1          6           0       -0.612999    0.559966    0.387069
      2          6           0        0.772081    0.490221   -0.196792
      3          6           0        1.717599   -0.531566    0.129069
      4          8           0       -1.462170   -0.281858   -0.416800
      5          8           0       -2.828972   -0.087177    0.079854
      6          8           0        2.901934   -0.083648    0.025261
      7          1           0       -3.071390   -1.010418    0.274308
      8          1           0       -0.996775    1.585300    0.346583
      9          1           0       -0.643083    0.216657    1.429677
     10          1           0        1.555918   -1.563351    0.460510
     11          1           0        2.060495    1.071747   -0.095008
     12          1           0        0.797244    0.709341   -1.271809
 ---------------------------------------------------------------------
                    Distance matrix (angstroms):
                    1          2          3          4          5
     1  C    0.000000
     2  C    1.504728   0.000000
     3  C    2.586444   1.429769   0.000000
     4  O    1.440821   2.374107   3.235932   0.000000
     5  O    2.328886   3.657527   4.568502   1.467213   0.000000
     6  O    3.591643   2.216959   1.270455   4.390912   5.731167
     7  H    2.919334   4.152845   4.815061   1.896845   0.974143
     8  H    1.095551   2.150187   3.449095   2.070175   2.495048
     9  H    1.098088   2.173230   2.797184   2.080600   2.586976
    10  H    3.036128   2.294255   1.095707   3.394223   4.642332
    11  H    2.764397   1.417231   1.654812   3.787475   5.027978
    12  H    2.182424   1.097409   2.085513   2.611219   3.951060
                    6          7          8          9         10
     6  O    0.000000
     7  H    6.049920   0.000000
     8  H    4.253065   3.323703   0.000000
     9  H    3.824881   2.955887   1.780835   0.000000
    10  H    2.047126   4.663945   4.055024   2.990538   0.000000
    11  H    1.434372   5.550500   3.131396   3.219499   2.739880
    12  H    2.596333   4.507148   2.570019   3.100855   2.956627
                   11         12
    11  H    0.000000
    12  H    1.764087   0.000000
 Symmetry turned off by external request.
 Stoichiometry    C3H6O3
 Framework group  C1[X(C3H6O3)]
 Deg. of freedom    30
 Full point group                 C1      NOp   1
 Rotational constants (GHZ):          17.6040205           1.3600894           1.3240275
 Standard basis: 6-31+G(d) (6D, 7F)
   126 basis functions,   216 primitive gaussians,   126 cartesian basis functions
    24 alpha electrons       24 beta electrons
       nuclear repulsion energy       230.8716596189 Hartrees.
 NAtoms=   12 NActive=   12 NUniq=   12 SFac= 1.00D+00 NAtFMM=   60 NAOKFM=F Big=F
 Integral buffers will be    131072 words long.
 Raffenetti 2 integral format.
 Two-electron integral symmetry is turned off.
 One-electron integrals computed using PRISM.
 NBasis=   126 RedAO= T EigKep=  8.38D-05  NBF=   126
 NBsUse=   126 1.00D-06 EigRej= -1.00D+00 NBFU=   126
 Initial guess from the checkpoint file:  "/scratch/bell/zhao922/YARP/paper-example/KHP-network/pp_0/IRC-folder/Gau-37093.chk"
 B after Tr=    -0.001595    0.000318   -0.000063
         Rot=    1.000000    0.000066   -0.000024   -0.000159 Ang=   0.02 deg.
 ExpMin= 4.38D-02 ExpMax= 5.48D+03 ExpMxC= 8.25D+02 IAcc=3 IRadAn=         5 AccDes= 0.00D+00
 Harris functional with IExCor=  402 and IRadAn=       5 diagonalized for initial guess.
 HarFok:  IExCor=  402 AccDes= 0.00D+00 IRadAn=         5 IDoV= 1 UseB2=F ITyADJ=14
 ICtDFT=  3500011 ScaDFX=  1.000000  1.000000  1.000000  1.000000
 FoFCou: FMM=F IPFlag=           0 FMFlag=      100000 FMFlg1=           0
         NFxFlg=           0 DoJE=T BraDBF=F KetDBF=T FulRan=T
         wScrn=  0.000000 ICntrl=       500 IOpCl=  0 I1Cent=   200000004 NGrid=           0
         NMat0=    1 NMatS0=      1 NMatT0=    0 NMatD0=    1 NMtDS0=    0 NMtDT0=    0
 Symmetry not used in FoFCou.
 Keep R1 ints in memory in canonical form, NReq=47237243.
 Requested convergence on RMS density matrix=1.00D-08 within 128 cycles.
 Requested convergence on MAX density matrix=1.00D-06.
 Requested convergence on             energy=1.00D-06.
 No special actions if energy rises.
 SCF Done:  E(RB3LYP) =  -343.397255054     A.U. after   13 cycles
            NFock= 13  Conv=0.33D-08     -V/T= 2.0091
 DoSCS=F DFT=T ScalE2(SS,OS)=  1.000000  1.000000
 Range of M.O.s used for correlation:     1   126
 NBasis=   126 NAE=    24 NBE=    24 NFC=     0 NFV=     0
 NROrb=    126 NOA=    24 NOB=    24 NVA=   102 NVB=   102

 **** Warning!!: The largest alpha MO coefficient is  0.37239041D+02

 Symmetrizing basis deriv contribution to polar:
 IMax=3 JMax=2 DiffMx= 0.00D+00
 G2DrvN: will do    13 centers at a time, making    1 passes.
 Calling FoFCou, ICntrl=  3107 FMM=F I1Cent=   0 AccDes= 0.00D+00.
 End of G2Drv F.D. properties file   721 does not exist.
 End of G2Drv F.D. properties file   722 does not exist.
 End of G2Drv F.D. properties file   788 does not exist.
          IDoAtm=111111111111
          Differentiating once with respect to nuclear coordinates.
 Keep R1 ints in memory in canonical form, NReq=47193265.
          There are    39 degrees of freedom in the 1st order CPHF.  IDoFFX=6 NUNeed=     0.
     33 vectors produced by pass  0 Test12= 6.28D-15 2.56D-09 XBig12= 1.49D-01 1.53D-01.
 AX will form    33 AO Fock derivatives at one time.
     33 vectors produced by pass  1 Test12= 6.28D-15 2.56D-09 XBig12= 5.25D-02 7.36D-02.
     33 vectors produced by pass  2 Test12= 6.28D-15 2.56D-09 XBig12= 8.04D-04 4.64D-03.
     33 vectors produced by pass  3 Test12= 6.28D-15 2.56D-09 XBig12= 3.54D-06 2.57D-04.
     33 vectors produced by pass  4 Test12= 6.28D-15 2.56D-09 XBig12= 5.96D-09 1.22D-05.
     27 vectors produced by pass  5 Test12= 6.28D-15 2.56D-09 XBig12= 5.94D-12 3.67D-07.
      4 vectors produced by pass  6 Test12= 6.28D-15 2.56D-09 XBig12= 5.26D-15 1.24D-08.
 InvSVY:  IOpt=1 It=  1 EMax= 3.11D-15
 Solved reduced A of dimension   196 with    33 vectors.
 End of Minotr F.D. properties file   721 does not exist.
 End of Minotr F.D. properties file   722 does not exist.
 End of Minotr F.D. properties file   788 does not exist.
 Calling FoFJK, ICntrl=    100127 FMM=F ISym2X=0 I1Cent= 0 IOpClX= 0 NMat=1 NMatS=1 NMatT=0.
 -------------------------------------------------------------------
 Center     Atomic                   Forces (Hartrees/Bohr)
 Number     Number              X              Y              Z
 -------------------------------------------------------------------
      1        6          -0.000065902    0.005055659    0.003211663
      2        6           0.016789838    0.020487855   -0.006193844
      3        6           0.029928385   -0.004931906   -0.002727963
      4        8           0.001401573    0.000409087    0.000092063
      5        8           0.002224353    0.000160242   -0.000107279
      6        8          -0.001429429   -0.030236328    0.007308963
      7        1           0.000139684   -0.000057877   -0.000012767
      8        1          -0.000338217    0.000129995    0.000164485
      9        1           0.000037016    0.000048624    0.000057981
     10        1          -0.000942518   -0.000924807   -0.001732290
     11        1          -0.042556795    0.016968472    0.002559791
     12        1          -0.005187989   -0.007109016   -0.002620802
 -------------------------------------------------------------------
 Cartesian Forces:  Max     0.042556795 RMS     0.011636878
 IRC-IRC-IRC-IRC-IRC-IRC-IRC-IRC-IRC-IRC-IRC-IRC-IRC-IRC-IRC-IRC-IRC-IRC
 Pt  2 Step number   1 out of a maximum of 100
 Modified Bulirsch-Stoer Extrapolation Cycles:
    EPS =    0.000010000000000
      PEZero:  N= 2 I= 1 D=  8.18D-04 Err=  2.69D-05
      PEZero:  N= 3 I= 2 D=  8.18D-04 Err=  1.79D-05
      PEZero:  N= 3 I= 1 D=  1.64D-03 Err=  2.95D-08
 Maximum DWI energy   std dev =  0.000021154 at pt    28
 Maximum DWI gradient std dev =  0.003770760 at pt    46
 CORRECTOR INTEGRATION CONVERGENCE:
   Recorrection delta-x convergence threshold:    0.010000
   Delta-x Convergence Met
 Point Number:   2          Path Number:   1
   CHANGE IN THE REACTION COORDINATE =    0.15701
   NET REACTION COORDINATE UP TO THIS POINT =    0.31407
  # OF POINTS ALONG THE PATH =   2
  # OF STEPS =   1

 Calculating another point on the path.
 IRC-IRC-IRC-IRC-IRC-IRC-IRC-IRC-IRC-IRC-IRC-IRC-IRC-IRC-IRC-IRC-IRC-IRC
                          Input orientation:                          
 ---------------------------------------------------------------------
 Center     Atomic      Atomic             Coordinates (Angstroms)
 Number     Number       Type             X           Y           Z
 ---------------------------------------------------------------------
      1          6           0       -0.613013    0.560687    0.387530
      2          6           0        0.774491    0.493138   -0.197720
      3          6           0        1.721829   -0.532290    0.128687
      4          8           0       -1.462013   -0.281809   -0.416787
      5          8           0       -2.828726   -0.087159    0.079842
      6          8           0        2.901797   -0.086816    0.026015
      7          1           0       -3.071140   -1.010516    0.274284
      8          1           0       -0.997356    1.585531    0.346877
      9          1           0       -0.643000    0.216738    1.429779
     10          1           0        1.554216   -1.564834    0.457842
     11          1           0        1.988170    1.099437   -0.090156
     12          1           0        0.788422    0.697448   -1.276221
 ---------------------------------------------------------------------
                    Distance matrix (angstroms):
                    1          2          3          4          5
     1  C    0.000000
     2  C    1.507398   0.000000
     3  C    2.590963   1.433700   0.000000
     4  O    1.441363   2.377074   3.239928   0.000000
     5  O    2.328897   3.660185   4.572536   1.467117   0.000000
     6  O    3.592192   2.216266   1.265430   4.390551   5.730776
     7  H    2.919570   4.156036   4.818967   1.896808   0.974249
     8  H    1.095298   2.151593   3.453512   2.070277   2.494617
     9  H    1.097945   2.175875   2.801125   2.080658   2.586906
    10  H    3.036391   2.296297   1.096624   3.392457   4.640753
    11  H    2.698998   1.360951   1.667742   3.730723   4.963809
    12  H    2.179631   1.097770   2.087407   2.600390   3.941861
                    6          7          8          9         10
     6  O    0.000000
     7  H    6.049035   0.000000
     8  H    4.254773   3.323448   0.000000
     9  H    3.824694   2.955873   1.780966   0.000000
    10  H    2.046213   4.662068   4.055568   2.991057   0.000000
    11  H    1.501801   5.493754   3.056249   3.164241   2.754443
    12  H    2.603314   4.496378   2.571408   3.098788   2.951497
                   11         12
    11  H    0.000000
    12  H    1.734284   0.000000
 Symmetry turned off by external request.
 Stoichiometry    C3H6O3
 Framework group  C1[X(C3H6O3)]
 Deg. of freedom    30
 Full point group                 C1      NOp   1
 Rotational constants (GHZ):          17.5282211           1.3605316           1.3241124
 Standard basis: 6-31+G(d) (6D, 7F)
   126 basis functions,   216 primitive gaussians,   126 cartesian basis functions
    24 alpha electrons       24 beta electrons
       nuclear repulsion energy       230.8547169712 Hartrees.
 NAtoms=   12 NActive=   12 NUniq=   12 SFac= 1.00D+00 NAtFMM=   60 NAOKFM=F Big=F
 Integral buffers will be    131072 words long.
 Raffenetti 2 integral format.
 Two-electron integral symmetry is turned off.
 One-electron integrals computed using PRISM.
 NBasis=   126 RedAO= T EigKep=  8.39D-05  NBF=   126
 NBsUse=   126 1.00D-06 EigRej= -1.00D+00 NBFU=   126
 Initial guess from the checkpoint file:  "/scratch/bell/zhao922/YARP/paper-example/KHP-network/pp_0/IRC-folder/Gau-37093.chk"
 B after Tr=    -0.001618    0.000283   -0.000034
         Rot=    1.000000    0.000062   -0.000021   -0.000154 Ang=   0.02 deg.
 ExpMin= 4.38D-02 ExpMax= 5.48D+03 ExpMxC= 8.25D+02 IAcc=3 IRadAn=         5 AccDes= 0.00D+00
 Harris functional with IExCor=  402 and IRadAn=       5 diagonalized for initial guess.
 HarFok:  IExCor=  402 AccDes= 0.00D+00 IRadAn=         5 IDoV= 1 UseB2=F ITyADJ=14
 ICtDFT=  3500011 ScaDFX=  1.000000  1.000000  1.000000  1.000000
 FoFCou: FMM=F IPFlag=           0 FMFlag=      100000 FMFlg1=           0
         NFxFlg=           0 DoJE=T BraDBF=F KetDBF=T FulRan=T
         wScrn=  0.000000 ICntrl=       500 IOpCl=  0 I1Cent=   200000004 NGrid=           0
         NMat0=    1 NMatS0=      1 NMatT0=    0 NMatD0=    1 NMtDS0=    0 NMtDT0=    0
 Symmetry not used in FoFCou.
 Keep R1 ints in memory in canonical form, NReq=47237243.
 Requested convergence on RMS density matrix=1.00D-08 within 128 cycles.
 Requested convergence on MAX density matrix=1.00D-06.
 Requested convergence on             energy=1.00D-06.
 No special actions if energy rises.
 SCF Done:  E(RB3LYP) =  -343.406283818     A.U. after   13 cycles
            NFock= 13  Conv=0.27D-08     -V/T= 2.0091
 DoSCS=F DFT=T ScalE2(SS,OS)=  1.000000  1.000000
 Range of M.O.s used for correlation:     1   126
 NBasis=   126 NAE=    24 NBE=    24 NFC=     0 NFV=     0
 NROrb=    126 NOA=    24 NOB=    24 NVA=   102 NVB=   102

 **** Warning!!: The largest alpha MO coefficient is  0.31842245D+02

 Symmetrizing basis deriv contribution to polar:
 IMax=3 JMax=2 DiffMx= 0.00D+00
 G2DrvN: will do    13 centers at a time, making    1 passes.
 Calling FoFCou, ICntrl=  3107 FMM=F I1Cent=   0 AccDes= 0.00D+00.
 End of G2Drv F.D. properties file   721 does not exist.
 End of G2Drv F.D. properties file   722 does not exist.
 End of G2Drv F.D. properties file   788 does not exist.
          IDoAtm=111111111111
          Differentiating once with respect to nuclear coordinates.
 Keep R1 ints in memory in canonical form, NReq=47193265.
          There are    39 degrees of freedom in the 1st order CPHF.  IDoFFX=6 NUNeed=     0.
     33 vectors produced by pass  0 Test12= 6.28D-15 2.56D-09 XBig12= 1.45D-01 1.25D-01.
 AX will form    33 AO Fock derivatives at one time.
     33 vectors produced by pass  1 Test12= 6.28D-15 2.56D-09 XBig12= 5.45D-02 7.43D-02.
     33 vectors produced by pass  2 Test12= 6.28D-15 2.56D-09 XBig12= 7.11D-04 4.88D-03.
     33 vectors produced by pass  3 Test12= 6.28D-15 2.56D-09 XBig12= 3.61D-06 2.38D-04.
     33 vectors produced by pass  4 Test12= 6.28D-15 2.56D-09 XBig12= 7.07D-09 1.41D-05.
     26 vectors produced by pass  5 Test12= 6.28D-15 2.56D-09 XBig12= 6.76D-12 4.38D-07.
      4 vectors produced by pass  6 Test12= 6.28D-15 2.56D-09 XBig12= 5.12D-15 1.12D-08.
 InvSVY:  IOpt=1 It=  1 EMax= 2.22D-15
 Solved reduced A of dimension   195 with    33 vectors.
 End of Minotr F.D. properties file   721 does not exist.
 End of Minotr F.D. properties file   722 does not exist.
 End of Minotr F.D. properties file   788 does not exist.
 Calling FoFJK, ICntrl=    100127 FMM=F ISym2X=0 I1Cent= 0 IOpClX= 0 NMat=1 NMatS=1 NMatT=0.
 -------------------------------------------------------------------
 Center     Atomic                   Forces (Hartrees/Bohr)
 Number     Number              X              Y              Z
 -------------------------------------------------------------------
      1        6          -0.000147069    0.006804789    0.004346845
      2        6           0.022598829    0.027655142   -0.009241895
      3        6           0.039841196   -0.006883590   -0.003604552
      4        8           0.002068472    0.000701494    0.000237271
      5        8           0.003205337    0.000235244   -0.000172967
      6        8          -0.001599918   -0.039268890    0.009254840
      7        1           0.000209277   -0.000072960   -0.000022013
      8        1          -0.000474081    0.000205655    0.000247300
      9        1           0.000080903    0.000064948    0.000089793
     10        1          -0.001435241   -0.001112227   -0.001963444
     11        1          -0.057306952    0.021096204    0.004269492
     12        1          -0.007040752   -0.009425809   -0.003440671
 -------------------------------------------------------------------
 Cartesian Forces:  Max     0.057306952 RMS     0.015477995
 IRC-IRC-IRC-IRC-IRC-IRC-IRC-IRC-IRC-IRC-IRC-IRC-IRC-IRC-IRC-IRC-IRC-IRC
 Pt  3 Step number   1 out of a maximum of 100
 Modified Bulirsch-Stoer Extrapolation Cycles:
    EPS =    0.000010000000000
      PEZero:  N= 2 I= 1 D=  8.18D-04 Err=  2.63D-05
      PEZero:  N= 3 I= 2 D=  8.18D-04 Err=  1.75D-05
      PEZero:  N= 3 I= 1 D=  1.64D-03 Err=  3.42D-08
 Maximum DWI energy   std dev =  0.000024389 at pt    19
 Maximum DWI gradient std dev =  0.001966904 at pt    34
 CORRECTOR INTEGRATION CONVERGENCE:
   Recorrection delta-x convergence threshold:    0.010000
   Delta-x Convergence Met
 Point Number:   3          Path Number:   1
   CHANGE IN THE REACTION COORDINATE =    0.15702
   NET REACTION COORDINATE UP TO THIS POINT =    0.47110
  # OF POINTS ALONG THE PATH =   3
  # OF STEPS =   1

 Calculating another point on the path.
 IRC-IRC-IRC-IRC-IRC-IRC-IRC-IRC-IRC-IRC-IRC-IRC-IRC-IRC-IRC-IRC-IRC-IRC
                          Input orientation:                          
 ---------------------------------------------------------------------
 Center     Atomic      Atomic             Coordinates (Angstroms)
 Number     Number       Type             X           Y           Z
 ---------------------------------------------------------------------
      1          6           0       -0.613031    0.561416    0.387995
      2          6           0        0.776890    0.496099   -0.198757
      3          6           0        1.726073   -0.533037    0.128302
      4          8           0       -1.461839   -0.281746   -0.416762
      5          8           0       -2.828459   -0.087139    0.079826
      6          8           0        2.901681   -0.089915    0.026738
      7          1           0       -3.070860   -1.010607    0.274253
      8          1           0       -0.997973    1.585808    0.347210
      9          1           0       -0.642877    0.216823    1.429901
     10          1           0        1.552289   -1.566172    0.455552
     11          1           0        1.915278    1.125291   -0.084180
     12          1           0        0.779409    0.685487   -1.280571
 ---------------------------------------------------------------------
                    Distance matrix (angstroms):
                    1          2          3          4          5
     1  C    0.000000
     2  C    1.510107   0.000000
     3  C    2.595510   1.437719   0.000000
     4  O    1.441885   2.380016   3.243921   0.000000
     5  O    2.328887   3.662829   4.576564   1.467012   0.000000
     6  O    3.592762   2.215626   1.260447   4.390194   5.730387
     7  H    2.919780   4.159216   4.822856   1.896757   0.974347
     8  H    1.095091   2.153064   3.458013   2.070407   2.494178
     9  H    1.097817   2.178591   2.805062   2.080729   2.586864
    10  H    3.036413   2.298331   1.097571   3.390523   4.638929
    11  H    2.633106   1.305733   1.682557   3.673592   4.898972
    12  H    2.176786   1.098269   2.089472   2.589382   3.932473
                    6          7          8          9         10
     6  O    0.000000
     7  H    6.048155   0.000000
     8  H    4.256531   3.323184   0.000000
     9  H    3.824506   2.955877   1.781133   0.000000
    10  H    2.045501   4.659938   4.055928   2.991184   0.000000
    11  H    1.569083   5.436184   2.980806   3.108361   2.768943
    12  H    2.610430   4.485396   2.572807   3.096643   2.946427
                   11         12
    11  H    0.000000
    12  H    1.707331   0.000000
 Symmetry turned off by external request.
 Stoichiometry    C3H6O3
 Framework group  C1[X(C3H6O3)]
 Deg. of freedom    30
 Full point group                 C1      NOp   1
 Rotational constants (GHZ):          17.4538725           1.3609439           1.3241759
 Standard basis: 6-31+G(d) (6D, 7F)
   126 basis functions,   216 primitive gaussians,   126 cartesian basis functions
    24 alpha electrons       24 beta electrons
       nuclear repulsion energy       230.8551596457 Hartrees.
 NAtoms=   12 NActive=   12 NUniq=   12 SFac= 1.00D+00 NAtFMM=   60 NAOKFM=F Big=F
 Integral buffers will be    131072 words long.
 Raffenetti 2 integral format.
 Two-electron integral symmetry is turned off.
 One-electron integrals computed using PRISM.
 NBasis=   126 RedAO= T EigKep=  8.41D-05  NBF=   126
 NBsUse=   126 1.00D-06 EigRej= -1.00D+00 NBFU=   126
 Initial guess from the checkpoint file:  "/scratch/bell/zhao922/YARP/paper-example/KHP-network/pp_0/IRC-folder/Gau-37093.chk"
 B after Tr=    -0.001636    0.000250   -0.000003
         Rot=    1.000000    0.000056   -0.000017   -0.000151 Ang=   0.02 deg.
 ExpMin= 4.38D-02 ExpMax= 5.48D+03 ExpMxC= 8.25D+02 IAcc=3 IRadAn=         5 AccDes= 0.00D+00
 Harris functional with IExCor=  402 and IRadAn=       5 diagonalized for initial guess.
 HarFok:  IExCor=  402 AccDes= 0.00D+00 IRadAn=         5 IDoV= 1 UseB2=F ITyADJ=14
 ICtDFT=  3500011 ScaDFX=  1.000000  1.000000  1.000000  1.000000
 FoFCou: FMM=F IPFlag=           0 FMFlag=      100000 FMFlg1=           0
         NFxFlg=           0 DoJE=T BraDBF=F KetDBF=T FulRan=T
         wScrn=  0.000000 ICntrl=       500 IOpCl=  0 I1Cent=   200000004 NGrid=           0
         NMat0=    1 NMatS0=      1 NMatT0=    0 NMatD0=    1 NMtDS0=    0 NMtDT0=    0
 Symmetry not used in FoFCou.
 Keep R1 ints in memory in canonical form, NReq=47237243.
 Requested convergence on RMS density matrix=1.00D-08 within 128 cycles.
 Requested convergence on MAX density matrix=1.00D-06.
 Requested convergence on             energy=1.00D-06.
 No special actions if energy rises.
 SCF Done:  E(RB3LYP) =  -343.417331587     A.U. after   13 cycles
            NFock= 13  Conv=0.20D-08     -V/T= 2.0091
 DoSCS=F DFT=T ScalE2(SS,OS)=  1.000000  1.000000
 Range of M.O.s used for correlation:     1   126
 NBasis=   126 NAE=    24 NBE=    24 NFC=     0 NFV=     0
 NROrb=    126 NOA=    24 NOB=    24 NVA=   102 NVB=   102

 **** Warning!!: The largest alpha MO coefficient is  0.31789208D+02

 Symmetrizing basis deriv contribution to polar:
 IMax=3 JMax=2 DiffMx= 0.00D+00
 G2DrvN: will do    13 centers at a time, making    1 passes.
 Calling FoFCou, ICntrl=  3107 FMM=F I1Cent=   0 AccDes= 0.00D+00.
 End of G2Drv F.D. properties file   721 does not exist.
 End of G2Drv F.D. properties file   722 does not exist.
 End of G2Drv F.D. properties file   788 does not exist.
          IDoAtm=111111111111
          Differentiating once with respect to nuclear coordinates.
 Keep R1 ints in memory in canonical form, NReq=47193265.
          There are    39 degrees of freedom in the 1st order CPHF.  IDoFFX=6 NUNeed=     0.
     33 vectors produced by pass  0 Test12= 6.28D-15 2.56D-09 XBig12= 1.39D-01 9.44D-02.
 AX will form    33 AO Fock derivatives at one time.
     33 vectors produced by pass  1 Test12= 6.28D-15 2.56D-09 XBig12= 5.35D-02 7.29D-02.
     33 vectors produced by pass  2 Test12= 6.28D-15 2.56D-09 XBig12= 6.09D-04 5.30D-03.
     33 vectors produced by pass  3 Test12= 6.28D-15 2.56D-09 XBig12= 3.38D-06 2.25D-04.
     33 vectors produced by pass  4 Test12= 6.28D-15 2.56D-09 XBig12= 7.48D-09 1.40D-05.
     25 vectors produced by pass  5 Test12= 6.28D-15 2.56D-09 XBig12= 6.96D-12 4.37D-07.
      4 vectors produced by pass  6 Test12= 6.28D-15 2.56D-09 XBig12= 4.84D-15 1.20D-08.
 InvSVY:  IOpt=1 It=  1 EMax= 2.33D-15
 Solved reduced A of dimension   194 with    33 vectors.
 End of Minotr F.D. properties file   721 does not exist.
 End of Minotr F.D. properties file   722 does not exist.
 End of Minotr F.D. properties file   788 does not exist.
 Calling FoFJK, ICntrl=    100127 FMM=F ISym2X=0 I1Cent= 0 IOpClX= 0 NMat=1 NMatS=1 NMatT=0.
 -------------------------------------------------------------------
 Center     Atomic                   Forces (Hartrees/Bohr)
 Number     Number              X              Y              Z
 -------------------------------------------------------------------
      1        6          -0.000184455    0.007869496    0.005001503
      2        6           0.025145966    0.032084343   -0.011844067
      3        6           0.046059035   -0.008044869   -0.004206245
      4        8           0.002651901    0.001036658    0.000463749
      5        8           0.004008681    0.000279240   -0.000239593
      6        8          -0.001505272   -0.044306997    0.010266848
      7        1           0.000266356   -0.000074567   -0.000031858
      8        1          -0.000578797    0.000278281    0.000321983
      9        1           0.000128677    0.000080360    0.000126494
     10        1          -0.001847428   -0.001151301   -0.001943139
     11        1          -0.065872314    0.022909068    0.005986340
     12        1          -0.008272350   -0.010959712   -0.003902016
 -------------------------------------------------------------------
 Cartesian Forces:  Max     0.065872314 RMS     0.017717604
 IRC-IRC-IRC-IRC-IRC-IRC-IRC-IRC-IRC-IRC-IRC-IRC-IRC-IRC-IRC-IRC-IRC-IRC
 Pt  4 Step number   1 out of a maximum of 100
 Modified Bulirsch-Stoer Extrapolation Cycles:
    EPS =    0.000010000000000
      PEZero:  N= 2 I= 1 D=  8.18D-04 Err=  1.83D-05
      PEZero:  N= 3 I= 2 D=  8.18D-04 Err=  1.22D-05
      PEZero:  N= 3 I= 1 D=  1.64D-03 Err=  3.70D-08
 Maximum DWI energy   std dev =  0.000024707 at pt    67
 Maximum DWI gradient std dev =  0.001305384 at pt    19
 CORRECTOR INTEGRATION CONVERGENCE:
   Recorrection delta-x convergence threshold:    0.010000
   Delta-x Convergence Met
 Point Number:   4          Path Number:   1
   CHANGE IN THE REACTION COORDINATE =    0.15703
   NET REACTION COORDINATE UP TO THIS POINT =    0.62813
  # OF POINTS ALONG THE PATH =   4
  # OF STEPS =   1

 Calculating another point on the path.
 IRC-IRC-IRC-IRC-IRC-IRC-IRC-IRC-IRC-IRC-IRC-IRC-IRC-IRC-IRC-IRC-IRC-IRC
                          Input orientation:                          
 ---------------------------------------------------------------------
 Center     Atomic      Atomic             Coordinates (Angstroms)
 Number     Number       Type             X           Y           Z
 ---------------------------------------------------------------------
      1          6           0       -0.613049    0.562152    0.388461
      2          6           0        0.779161    0.499101   -0.199922
      3          6           0        1.730395   -0.533786    0.127903
      4          8           0       -1.461642   -0.281664   -0.416721
      5          8           0       -2.828166   -0.087119    0.079808
      6          8           0        2.901590   -0.093000    0.027448
      7          1           0       -3.070550   -1.010686    0.274214
      8          1           0       -0.998636    1.586137    0.347591
      9          1           0       -0.642713    0.216919    1.430055
     10          1           0        1.550130   -1.567383    0.453536
     11          1           0        1.842312    1.150210   -0.076890
     12          1           0        0.770101    0.673179   -1.284898
 ---------------------------------------------------------------------
                    Distance matrix (angstroms):
                    1          2          3          4          5
     1  C    0.000000
     2  C    1.512752   0.000000
     3  C    2.600134   1.441933   0.000000
     4  O    1.442378   2.382813   3.247966   0.000000
     5  O    2.328854   3.665339   4.580644   1.466893   0.000000
     6  O    3.593360   2.215172   1.255420   4.389838   5.729998
     7  H    2.919963   4.162275   4.826791   1.896694   0.974432
     8  H    1.094940   2.154526   3.462651   2.070562   2.493727
     9  H    1.097718   2.181325   2.809057   2.080820   2.586853
    10  H    3.036197   2.300382   1.098570   3.388391   4.636844
    11  H    2.567326   1.252745   1.700090   3.616886   4.834139
    12  H    2.173836   1.098890   2.091635   2.578010   3.922754
                    6          7          8          9         10
     6  O    0.000000
     7  H    6.047271   0.000000
     8  H    4.258375   3.322905   0.000000
     9  H    3.824322   2.955905   1.781339   0.000000
    10  H    2.044945   4.657547   4.056121   2.990966   0.000000
    11  H    1.636620   5.378565   2.905375   3.052420   2.784247
    12  H    2.617733   4.474017   2.574286   3.094380   2.941210
                   11         12
    11  H    0.000000
    12  H    1.684185   0.000000
 Symmetry turned off by external request.
 Stoichiometry    C3H6O3
 Framework group  C1[X(C3H6O3)]
 Deg. of freedom    30
 Full point group                 C1      NOp   1
 Rotational constants (GHZ):          17.3801629           1.3613193           1.3242064
 Standard basis: 6-31+G(d) (6D, 7F)
   126 basis functions,   216 primitive gaussians,   126 cartesian basis functions
    24 alpha electrons       24 beta electrons
       nuclear repulsion energy       230.8689268378 Hartrees.
 NAtoms=   12 NActive=   12 NUniq=   12 SFac= 1.00D+00 NAtFMM=   60 NAOKFM=F Big=F
 Integral buffers will be    131072 words long.
 Raffenetti 2 integral format.
 Two-electron integral symmetry is turned off.
 One-electron integrals computed using PRISM.
 NBasis=   126 RedAO= T EigKep=  8.42D-05  NBF=   126
 NBsUse=   126 1.00D-06 EigRej= -1.00D+00 NBFU=   126
 Initial guess from the checkpoint file:  "/scratch/bell/zhao922/YARP/paper-example/KHP-network/pp_0/IRC-folder/Gau-37093.chk"
 B after Tr=    -0.001647    0.000230    0.000030
         Rot=    1.000000    0.000050   -0.000014   -0.000148 Ang=   0.02 deg.
 ExpMin= 4.38D-02 ExpMax= 5.48D+03 ExpMxC= 8.25D+02 IAcc=3 IRadAn=         5 AccDes= 0.00D+00
 Harris functional with IExCor=  402 and IRadAn=       5 diagonalized for initial guess.
 HarFok:  IExCor=  402 AccDes= 0.00D+00 IRadAn=         5 IDoV= 1 UseB2=F ITyADJ=14
 ICtDFT=  3500011 ScaDFX=  1.000000  1.000000  1.000000  1.000000
 FoFCou: FMM=F IPFlag=           0 FMFlag=      100000 FMFlg1=           0
         NFxFlg=           0 DoJE=T BraDBF=F KetDBF=T FulRan=T
         wScrn=  0.000000 ICntrl=       500 IOpCl=  0 I1Cent=   200000004 NGrid=           0
         NMat0=    1 NMatS0=      1 NMatT0=    0 NMatD0=    1 NMtDS0=    0 NMtDT0=    0
 Symmetry not used in FoFCou.
 Keep R1 ints in memory in canonical form, NReq=47237243.
 Requested convergence on RMS density matrix=1.00D-08 within 128 cycles.
 Requested convergence on MAX density matrix=1.00D-06.
 Requested convergence on             energy=1.00D-06.
 No special actions if energy rises.
 SCF Done:  E(RB3LYP) =  -343.429312828     A.U. after   13 cycles
            NFock= 13  Conv=0.16D-08     -V/T= 2.0091
 DoSCS=F DFT=T ScalE2(SS,OS)=  1.000000  1.000000
 Range of M.O.s used for correlation:     1   126
 NBasis=   126 NAE=    24 NBE=    24 NFC=     0 NFV=     0
 NROrb=    126 NOA=    24 NOB=    24 NVA=   102 NVB=   102

 **** Warning!!: The largest alpha MO coefficient is  0.33065182D+02

 Symmetrizing basis deriv contribution to polar:
 IMax=3 JMax=2 DiffMx= 0.00D+00
 G2DrvN: will do    13 centers at a time, making    1 passes.
 Calling FoFCou, ICntrl=  3107 FMM=F I1Cent=   0 AccDes= 0.00D+00.
 End of G2Drv F.D. properties file   721 does not exist.
 End of G2Drv F.D. properties file   722 does not exist.
 End of G2Drv F.D. properties file   788 does not exist.
          IDoAtm=111111111111
          Differentiating once with respect to nuclear coordinates.
 Keep R1 ints in memory in canonical form, NReq=47193265.
          There are    39 degrees of freedom in the 1st order CPHF.  IDoFFX=6 NUNeed=     0.
     33 vectors produced by pass  0 Test12= 6.28D-15 2.56D-09 XBig12= 1.35D-01 9.21D-02.
 AX will form    33 AO Fock derivatives at one time.
     33 vectors produced by pass  1 Test12= 6.28D-15 2.56D-09 XBig12= 5.11D-02 7.13D-02.
     33 vectors produced by pass  2 Test12= 6.28D-15 2.56D-09 XBig12= 5.30D-04 5.14D-03.
     33 vectors produced by pass  3 Test12= 6.28D-15 2.56D-09 XBig12= 3.08D-06 2.14D-04.
     33 vectors produced by pass  4 Test12= 6.28D-15 2.56D-09 XBig12= 7.16D-09 1.40D-05.
     25 vectors produced by pass  5 Test12= 6.28D-15 2.56D-09 XBig12= 6.60D-12 4.17D-07.
      4 vectors produced by pass  6 Test12= 6.28D-15 2.56D-09 XBig12= 4.54D-15 1.13D-08.
 InvSVY:  IOpt=1 It=  1 EMax= 2.11D-15
 Solved reduced A of dimension   194 with    33 vectors.
 End of Minotr F.D. properties file   721 does not exist.
 End of Minotr F.D. properties file   722 does not exist.
 End of Minotr F.D. properties file   788 does not exist.
 Calling FoFJK, ICntrl=    100127 FMM=F ISym2X=0 I1Cent= 0 IOpClX= 0 NMat=1 NMatS=1 NMatT=0.
 -------------------------------------------------------------------
 Center     Atomic                   Forces (Hartrees/Bohr)
 Number     Number              X              Y              Z
 -------------------------------------------------------------------
      1        6          -0.000186001    0.008229177    0.005156806
      2        6           0.023654703    0.033458246   -0.013903222
      3        6           0.048963814   -0.008241362   -0.004571851
      4        8           0.003117454    0.001399611    0.000770371
      5        8           0.004607663    0.000279204   -0.000303922
      6        8          -0.001100573   -0.046156931    0.010603733
      7        1           0.000305010   -0.000063043   -0.000041103
      8        1          -0.000645733    0.000338981    0.000381254
      9        1           0.000172141    0.000097263    0.000168155
     10        1          -0.002139480   -0.001077393   -0.001806368
     11        1          -0.067852655    0.023548363    0.007572001
     12        1          -0.008896342   -0.011812116   -0.004025854
 -------------------------------------------------------------------
 Cartesian Forces:  Max     0.067852655 RMS     0.018402350
 IRC-IRC-IRC-IRC-IRC-IRC-IRC-IRC-IRC-IRC-IRC-IRC-IRC-IRC-IRC-IRC-IRC-IRC
 Pt  5 Step number   1 out of a maximum of 100
 Modified Bulirsch-Stoer Extrapolation Cycles:
    EPS =    0.000010000000000
      PEZero:  N= 2 I= 1 D=  8.18D-04 Err=  2.06D-05
      PEZero:  N= 3 I= 2 D=  8.18D-04 Err=  1.38D-05
      PEZero:  N= 3 I= 1 D=  1.64D-03 Err=  3.10D-08
 Maximum DWI energy   std dev =  0.000024038 at pt    67
 Maximum DWI gradient std dev =  0.002355243 at pt    18
 CORRECTOR INTEGRATION CONVERGENCE:
   Recorrection delta-x convergence threshold:    0.010000
   Delta-x Convergence Met
 Point Number:   5          Path Number:   1
   CHANGE IN THE REACTION COORDINATE =    0.15703
   NET REACTION COORDINATE UP TO THIS POINT =    0.78516
  # OF POINTS ALONG THE PATH =   5
  # OF STEPS =   1

 Calculating another point on the path.
 IRC-IRC-IRC-IRC-IRC-IRC-IRC-IRC-IRC-IRC-IRC-IRC-IRC-IRC-IRC-IRC-IRC-IRC
                          Input orientation:                          
 ---------------------------------------------------------------------
 Center     Atomic      Atomic             Coordinates (Angstroms)
 Number     Number       Type             X           Y           Z
 ---------------------------------------------------------------------
      1          6           0       -0.613068    0.562895    0.388923
      2          6           0        0.781126    0.502115   -0.201258
      3          6           0        1.734885   -0.534509    0.127477
      4          8           0       -1.461417   -0.281556   -0.416656
      5          8           0       -2.827836   -0.087101    0.079785
      6          8           0        2.901538   -0.096151    0.028171
      7          1           0       -3.070207   -1.010747    0.274166
      8          1           0       -0.999354    1.586525    0.348029
      9          1           0       -0.642505    0.217035    1.430257
     10          1           0        1.547707   -1.568474    0.451667
     11          1           0        1.770032    1.175741   -0.067946
     12          1           0        0.760349    0.660174   -1.289228
 ---------------------------------------------------------------------
                    Distance matrix (angstroms):
                    1          2          3          4          5
     1  C    0.000000
     2  C    1.515184   0.000000
     3  C    2.604905   1.446483   0.000000
     4  O    1.442828   2.385275   3.252139   0.000000
     5  O    2.328789   3.667528   4.584852   1.466753   0.000000
     6  O    3.594014   2.215110   1.250240   4.389490   5.729614
     7  H    2.920112   4.165038   4.830861   1.896618   0.974499
     8  H    1.094855   2.155869   3.467491   2.070742   2.493256
     9  H    1.097662   2.183995   2.813189   2.080937   2.586879
    10  H    3.035723   2.302455   1.099644   3.385996   4.634450
    11  H    2.502693   1.203943   1.721739   3.561962   4.770428
    12  H    2.170698   1.099587   2.093810   2.566024   3.912504
                    6          7          8          9         10
     6  O    0.000000
     7  H    6.046382   0.000000
     8  H    4.260361   3.322606   0.000000
     9  H    3.824157   2.955966   1.781589   0.000000
    10  H    2.044491   4.654857   4.056141   2.990436   0.000000
    11  H    1.705068   5.322188   2.830420   2.997343   2.801811
    12  H    2.625311   4.461988   2.575906   3.091920   2.935561
                   11         12
    11  H    0.000000
    12  H    1.666373   0.000000
 Symmetry turned off by external request.
 Stoichiometry    C3H6O3
 Framework group  C1[X(C3H6O3)]
 Deg. of freedom    30
 Full point group                 C1      NOp   1
 Rotational constants (GHZ):          17.3055557           1.3616465           1.3241833
 Standard basis: 6-31+G(d) (6D, 7F)
   126 basis functions,   216 primitive gaussians,   126 cartesian basis functions
    24 alpha electrons       24 beta electrons
       nuclear repulsion energy       230.8889477190 Hartrees.
 NAtoms=   12 NActive=   12 NUniq=   12 SFac= 1.00D+00 NAtFMM=   60 NAOKFM=F Big=F
 Integral buffers will be    131072 words long.
 Raffenetti 2 integral format.
 Two-electron integral symmetry is turned off.
 One-electron integrals computed using PRISM.
 NBasis=   126 RedAO= T EigKep=  8.43D-05  NBF=   126
 NBsUse=   126 1.00D-06 EigRej= -1.00D+00 NBFU=   126
 Initial guess from the checkpoint file:  "/scratch/bell/zhao922/YARP/paper-example/KHP-network/pp_0/IRC-folder/Gau-37093.chk"
 B after Tr=    -0.001647    0.000233    0.000067
         Rot=    1.000000    0.000040   -0.000011   -0.000148 Ang=   0.02 deg.
 ExpMin= 4.38D-02 ExpMax= 5.48D+03 ExpMxC= 8.25D+02 IAcc=3 IRadAn=         5 AccDes= 0.00D+00
 Harris functional with IExCor=  402 and IRadAn=       5 diagonalized for initial guess.
 HarFok:  IExCor=  402 AccDes= 0.00D+00 IRadAn=         5 IDoV= 1 UseB2=F ITyADJ=14
 ICtDFT=  3500011 ScaDFX=  1.000000  1.000000  1.000000  1.000000
 FoFCou: FMM=F IPFlag=           0 FMFlag=      100000 FMFlg1=           0
         NFxFlg=           0 DoJE=T BraDBF=F KetDBF=T FulRan=T
         wScrn=  0.000000 ICntrl=       500 IOpCl=  0 I1Cent=   200000004 NGrid=           0
         NMat0=    1 NMatS0=      1 NMatT0=    0 NMatD0=    1 NMtDS0=    0 NMtDT0=    0
 Symmetry not used in FoFCou.
 Keep R1 ints in memory in canonical form, NReq=47237243.
 Requested convergence on RMS density matrix=1.00D-08 within 128 cycles.
 Requested convergence on MAX density matrix=1.00D-06.
 Requested convergence on             energy=1.00D-06.
 No special actions if energy rises.
 SCF Done:  E(RB3LYP) =  -343.441200442     A.U. after   13 cycles
            NFock= 13  Conv=0.13D-08     -V/T= 2.0091
 DoSCS=F DFT=T ScalE2(SS,OS)=  1.000000  1.000000
 Range of M.O.s used for correlation:     1   126
 NBasis=   126 NAE=    24 NBE=    24 NFC=     0 NFV=     0
 NROrb=    126 NOA=    24 NOB=    24 NVA=   102 NVB=   102

 **** Warning!!: The largest alpha MO coefficient is  0.39627224D+02

 Symmetrizing basis deriv contribution to polar:
 IMax=3 JMax=2 DiffMx= 0.00D+00
 G2DrvN: will do    13 centers at a time, making    1 passes.
 Calling FoFCou, ICntrl=  3107 FMM=F I1Cent=   0 AccDes= 0.00D+00.
 End of G2Drv F.D. properties file   721 does not exist.
 End of G2Drv F.D. properties file   722 does not exist.
 End of G2Drv F.D. properties file   788 does not exist.
          IDoAtm=111111111111
          Differentiating once with respect to nuclear coordinates.
 Keep R1 ints in memory in canonical form, NReq=47193265.
          There are    39 degrees of freedom in the 1st order CPHF.  IDoFFX=6 NUNeed=     0.
     33 vectors produced by pass  0 Test12= 6.28D-15 2.56D-09 XBig12= 1.32D-01 9.54D-02.
 AX will form    33 AO Fock derivatives at one time.
     33 vectors produced by pass  1 Test12= 6.28D-15 2.56D-09 XBig12= 4.83D-02 6.99D-02.
     33 vectors produced by pass  2 Test12= 6.28D-15 2.56D-09 XBig12= 4.73D-04 4.68D-03.
     33 vectors produced by pass  3 Test12= 6.28D-15 2.56D-09 XBig12= 2.83D-06 2.15D-04.
     33 vectors produced by pass  4 Test12= 6.28D-15 2.56D-09 XBig12= 6.47D-09 1.42D-05.
     24 vectors produced by pass  5 Test12= 6.28D-15 2.56D-09 XBig12= 6.02D-12 3.83D-07.
      4 vectors produced by pass  6 Test12= 6.28D-15 2.56D-09 XBig12= 4.17D-15 1.03D-08.
 InvSVY:  IOpt=1 It=  1 EMax= 1.67D-15
 Solved reduced A of dimension   193 with    33 vectors.
 End of Minotr F.D. properties file   721 does not exist.
 End of Minotr F.D. properties file   722 does not exist.
 End of Minotr F.D. properties file   788 does not exist.
 Calling FoFJK, ICntrl=    100127 FMM=F ISym2X=0 I1Cent= 0 IOpClX= 0 NMat=1 NMatS=1 NMatT=0.
 -------------------------------------------------------------------
 Center     Atomic                   Forces (Hartrees/Bohr)
 Number     Number              X              Y              Z
 -------------------------------------------------------------------
      1        6          -0.000231013    0.007896278    0.004854065
      2        6           0.018043385    0.031634061   -0.015418693
      3        6           0.048967884   -0.007384149   -0.004713806
      4        8           0.003438781    0.001776540    0.001151400
      5        8           0.004995074    0.000230908   -0.000364681
      6        8          -0.000220266   -0.045648411    0.010477868
      7        1           0.000322048   -0.000042187   -0.000048335
      8        1          -0.000667956    0.000379416    0.000418716
      9        1           0.000207935    0.000117672    0.000210919
     10        1          -0.002298907   -0.000915515   -0.001656551
     11        1          -0.063604451    0.024005028    0.008922102
     12        1          -0.008952513   -0.012049642   -0.003833002
 -------------------------------------------------------------------
 Cartesian Forces:  Max     0.063604451 RMS     0.017725439
 IRC-IRC-IRC-IRC-IRC-IRC-IRC-IRC-IRC-IRC-IRC-IRC-IRC-IRC-IRC-IRC-IRC-IRC
 Pt  6 Step number   1 out of a maximum of 100
 Modified Bulirsch-Stoer Extrapolation Cycles:
    EPS =    0.000010000000000
      PEZero:  N= 2 I= 1 D=  8.18D-04 Err=  2.58D-05
      PEZero:  N= 3 I= 2 D=  8.18D-04 Err=  1.72D-05
      PEZero:  N= 3 I= 1 D=  1.64D-03 Err=  1.53D-08
 Maximum DWI energy   std dev =  0.000021124 at pt    45
 Maximum DWI gradient std dev =  0.003296285 at pt    26
 CORRECTOR INTEGRATION CONVERGENCE:
   Recorrection delta-x convergence threshold:    0.010000
   Delta-x Convergence Met
 Point Number:   6          Path Number:   1
   CHANGE IN THE REACTION COORDINATE =    0.15703
   NET REACTION COORDINATE UP TO THIS POINT =    0.94219
  # OF POINTS ALONG THE PATH =   6
  # OF STEPS =   1

 Calculating another point on the path.
 IRC-IRC-IRC-IRC-IRC-IRC-IRC-IRC-IRC-IRC-IRC-IRC-IRC-IRC-IRC-IRC-IRC-IRC
                          Input orientation:                          
 ---------------------------------------------------------------------
 Center     Atomic      Atomic             Coordinates (Angstroms)
 Number     Number       Type             X           Y           Z
 ---------------------------------------------------------------------
      1          6           0       -0.613100    0.563637    0.389376
      2          6           0        0.782531    0.505069   -0.202831
      3          6           0        1.739636   -0.535155    0.127012
      4          8           0       -1.461154   -0.281410   -0.416555
      5          8           0       -2.827456   -0.087087    0.079756
      6          8           0        2.901572   -0.099473    0.028935
      7          1           0       -3.069827   -1.010786    0.274106
      8          1           0       -1.000131    1.586979    0.348534
      9          1           0       -0.642241    0.217189    1.430524
     10          1           0        1.544960   -1.569425    0.449783
     11          1           0        1.699601    1.204056   -0.056853
     12          1           0        0.749995    0.646104   -1.293542
 ---------------------------------------------------------------------
                    Distance matrix (angstroms):
                    1          2          3          4          5
     1  C    0.000000
     2  C    1.517210   0.000000
     3  C    2.609893   1.451520   0.000000
     4  O    1.443199   2.387122   3.256518   0.000000
     5  O    2.328665   3.669129   4.589262   1.466583   0.000000
     6  O    3.594795   2.215744   1.244803   4.389185   5.729267
     7  H    2.920206   4.167248   4.835162   1.896531   0.974544
     8  H    1.094847   2.156947   3.472585   2.070937   2.492760
     9  H    1.097663   2.186481   2.817535   2.081086   2.586952
    10  H    3.034934   2.304502   1.100816   3.383231   4.631659
    11  H    2.440869   1.162286   1.749361   3.510893   4.709560
    12  H    2.167266   1.100273   2.095885   2.553149   3.901496
                    6          7          8          9         10
     6  O    0.000000
     7  H    6.045512   0.000000
     8  H    4.262576   3.322283   0.000000
     9  H    3.824047   2.956079   1.781884   0.000000
    10  H    2.044081   4.651796   4.055937   2.989598   0.000000
    11  H    1.775185   5.269014   2.756724   2.944558   2.823613
    12  H    2.633271   4.449028   2.577713   3.089147   2.929116
                   11         12
    11  H    0.000000
    12  H    1.656038   0.000000
 Symmetry turned off by external request.
 Stoichiometry    C3H6O3
 Framework group  C1[X(C3H6O3)]
 Deg. of freedom    30
 Full point group                 C1      NOp   1
 Rotational constants (GHZ):          17.2281045           1.3619070           1.3240757
 Standard basis: 6-31+G(d) (6D, 7F)
   126 basis functions,   216 primitive gaussians,   126 cartesian basis functions
    24 alpha electrons       24 beta electrons
       nuclear repulsion energy       230.9041932445 Hartrees.
 NAtoms=   12 NActive=   12 NUniq=   12 SFac= 1.00D+00 NAtFMM=   60 NAOKFM=F Big=F
 Integral buffers will be    131072 words long.
 Raffenetti 2 integral format.
 Two-electron integral symmetry is turned off.
 One-electron integrals computed using PRISM.
 NBasis=   126 RedAO= T EigKep=  8.43D-05  NBF=   126
 NBsUse=   126 1.00D-06 EigRej= -1.00D+00 NBFU=   126
 Initial guess from the checkpoint file:  "/scratch/bell/zhao922/YARP/paper-example/KHP-network/pp_0/IRC-folder/Gau-37093.chk"
 B after Tr=    -0.001628    0.000273    0.000110
         Rot=    1.000000    0.000023   -0.000007   -0.000151 Ang=   0.02 deg.
 ExpMin= 4.38D-02 ExpMax= 5.48D+03 ExpMxC= 8.25D+02 IAcc=3 IRadAn=         5 AccDes= 0.00D+00
 Harris functional with IExCor=  402 and IRadAn=       5 diagonalized for initial guess.
 HarFok:  IExCor=  402 AccDes= 0.00D+00 IRadAn=         5 IDoV= 1 UseB2=F ITyADJ=14
 ICtDFT=  3500011 ScaDFX=  1.000000  1.000000  1.000000  1.000000
 FoFCou: FMM=F IPFlag=           0 FMFlag=      100000 FMFlg1=           0
         NFxFlg=           0 DoJE=T BraDBF=F KetDBF=T FulRan=T
         wScrn=  0.000000 ICntrl=       500 IOpCl=  0 I1Cent=   200000004 NGrid=           0
         NMat0=    1 NMatS0=      1 NMatT0=    0 NMatD0=    1 NMtDS0=    0 NMtDT0=    0
 Symmetry not used in FoFCou.
 Keep R1 ints in memory in canonical form, NReq=47237243.
 Requested convergence on RMS density matrix=1.00D-08 within 128 cycles.
 Requested convergence on MAX density matrix=1.00D-06.
 Requested convergence on             energy=1.00D-06.
 No special actions if energy rises.
 SCF Done:  E(RB3LYP) =  -343.452158148     A.U. after   12 cycles
            NFock= 12  Conv=0.78D-08     -V/T= 2.0090
 DoSCS=F DFT=T ScalE2(SS,OS)=  1.000000  1.000000
 Range of M.O.s used for correlation:     1   126
 NBasis=   126 NAE=    24 NBE=    24 NFC=     0 NFV=     0
 NROrb=    126 NOA=    24 NOB=    24 NVA=   102 NVB=   102

 **** Warning!!: The largest alpha MO coefficient is  0.41116489D+02

 Symmetrizing basis deriv contribution to polar:
 IMax=3 JMax=2 DiffMx= 0.00D+00
[...]
  11                   -1.13843   0.92047   3.17063   0.59486  -0.59239
  12                   -1.16035   0.89690   3.16826   0.61787  -0.56230
  13                   -1.18172   0.87419   3.16387   0.64054  -0.53209
  14                   -1.20243   0.85251   3.15749   0.66272  -0.50195
  15                   -1.22240   0.83201   3.14919   0.68427  -0.47204
  16                   -1.24158   0.81279   3.13907   0.70507  -0.44250
  17                   -1.25995   0.79488   3.12728   0.72505  -0.41342
  18                   -1.27755   0.77828   3.11393   0.74415  -0.38487
  19                   -1.29441   0.76294   3.09912   0.76234  -0.35693
  20                   -1.31065   0.74874   3.08289   0.77959  -0.32969
  21                   -1.32640   0.73550   3.06526   0.79587  -0.30327
  22                   -1.34185   0.72294   3.04619   0.81112  -0.27792
  23                   -1.35726   0.71063   3.02567   0.82523  -0.25397
  24                   -1.37287   0.69807   3.00374   0.83805  -0.23188
  25                   -1.38885   0.68475   2.98046   0.84942  -0.21212
  26                   -1.40523   0.67032   2.95590   0.85922  -0.19496
  27                   -1.42190   0.65468   2.92997   0.86742  -0.18040
  28                   -1.43864   0.63797   2.90236   0.87406  -0.16817
  29                   -1.45521   0.62041   2.87257   0.87916  -0.15784
  30                   -1.47135   0.60233   2.83994   0.88269  -0.14899
  31                   -1.48678   0.58405   2.80373   0.88452  -0.14120
  32                   -1.50119   0.56593   2.76319   0.88440  -0.13413
  33                   -1.51422   0.54833   2.71763   0.88206  -0.12748
  34                   -1.52556   0.53164   2.66654   0.87757  -0.12108
  35                   -1.53498   0.51628   2.60951   0.87257  -0.11502
  36                   -1.54241   0.50279   2.54624   0.87269  -0.10995
  37                   -1.54792   0.49188   2.47829   0.88552  -0.10678
  38                   -1.55194   0.48357   2.40921   0.91065  -0.10529
  39                   -1.55503   0.47713   2.34041   0.94219  -0.10437
  40                   -1.55755   0.47192   2.27155   0.97586  -0.10319
  41                   -1.55968   0.46765   2.20190   1.00908  -0.10116
  42                   -1.56163   0.46377   2.13168   1.04136  -0.09859
  43                   -1.56332   0.46057   2.06035   1.07141  -0.09487
  44                   -1.56482   0.45786   1.98811   1.09925  -0.09007
  45                   -1.56617   0.45556   1.91528   1.12524  -0.08411
  46                   -1.56738   0.45353   1.84238   1.15031  -0.07682
  47                   -1.56847   0.45165   1.77016   1.17598  -0.06787
  48                   -1.56942   0.44977   1.69979   1.20440  -0.05677
  49                   -1.57016   0.44768   1.63271   1.23748  -0.04319
  50                   -1.57056   0.44518   1.56966   1.27538  -0.02742
  51                   -1.57043   0.44206   1.50970   1.31589  -0.01068
  52                   -1.56950   0.43806   1.45130   1.35595   0.00535
  53                   -1.56733   0.43291   1.39447   1.39308   0.01861
  54                   -1.56322   0.42644   1.34236   1.42531   0.02651
  55                   -1.55643   0.41914   1.30086   1.45124   0.02667
  56                   -1.54690   0.41232   1.27293   1.47134   0.01935
  57                   -1.53534   0.40713   1.25532   1.48809   0.00724
  58                   -1.52245   0.40391   1.24336   1.50374  -0.00717
  59                   -1.50867   0.40250   1.23423   1.51927  -0.02231
  60                   -1.49428   0.40270   1.22666   1.53483  -0.03709
  61                   -1.47946   0.40435   1.22022   1.55019  -0.05072
  62                   -1.46452   0.40720   1.21483   1.56501  -0.06265
  63                   -1.44990   0.41070   1.21061   1.57894  -0.07256
  64                   -1.43641   0.41371   1.20782   1.59161  -0.08015
  65                   -1.42522   0.41457   1.20683   1.60251  -0.08489
  66                   -1.41739   0.41182   1.20791   1.61123  -0.08616
  67                   -1.41289   0.40539   1.21077   1.61785  -0.08398
  68                   -1.41067   0.39636   1.21473   1.62302  -0.07921
  69                   -1.40967   0.38581   1.21923   1.62733  -0.07278
  70                   -1.40925   0.37440   1.22395   1.63119  -0.06535
  71                   -1.40902   0.36248   1.22873   1.63480  -0.05731
  72                   -1.40883   0.35026   1.23349   1.63826  -0.04892
  73                   -1.40856   0.33782   1.23819   1.64162  -0.04033
  74                   -1.40819   0.32523   1.24281   1.64489  -0.03165
  75                   -1.40768   0.31253   1.24736   1.64810  -0.02296
  76                   -1.40703   0.29971   1.25183   1.65123  -0.01430
  77                   -1.40624   0.28679   1.25622   1.65430  -0.00572
  78                   -1.40532   0.27374   1.26055   1.65729   0.00274
  79                   -1.40428   0.26050   1.26480   1.66020   0.01104
  80                   -1.40314   0.24700   1.26900   1.66302   0.01915
  81                   -1.40194   0.23310   1.27315   1.66574   0.02700
                          X12       Y12       Z12
   1                    0.85843   1.17818  -1.00222
   2                    0.86733   1.19620  -0.99230
   3                    0.87640   1.21356  -0.98155
   4                    0.88567   1.23006  -0.97011
   5                    0.89512   1.24554  -0.95814
   6                    0.90470   1.25986  -0.94577
   7                    0.91432   1.27288  -0.93319
   8                    0.92391   1.28446  -0.92060
   9                    0.93338   1.29445  -0.90823
  10                    0.94262   1.30272  -0.89632
  11                    0.95155   1.30916  -0.88512
  12                    0.96008   1.31373  -0.87487
  13                    0.96814   1.31640  -0.86575
  14                    0.97568   1.31721  -0.85793
  15                    0.98267   1.31627  -0.85149
  16                    0.98909   1.31369  -0.84652
  17                    0.99496   1.30958  -0.84307
  18                    1.00027   1.30398  -0.84127
  19                    1.00501   1.29689  -0.84135
  20                    1.00911   1.28815  -0.84370
  21                    1.01244   1.27746  -0.84892
  22                    1.01480   1.26438  -0.85783
  23                    1.01586   1.24830  -0.87134
  24                    1.01523   1.22865  -0.89022
  25                    1.01250   1.20502  -0.91465
  26                    1.00737   1.17739  -0.94394
  27                    0.99971   1.14611  -0.97673
  28                    0.98960   1.11179  -1.01134
  29                    0.97724   1.07514  -1.04626
  30                    0.96297   1.03689  -1.08021
  31                    0.94720   0.99779  -1.11223
  32                    0.93040   0.95868  -1.14158
  33                    0.91313   0.92048  -1.16773
  34                    0.89598   0.88413  -1.19036
  35                    0.87959   0.85063  -1.20933
  36                    0.86461   0.82107  -1.22462
  37                    0.85177   0.79666  -1.23624
  38                    0.84110   0.77728  -1.24485
  39                    0.83177   0.76122  -1.25160
  40                    0.82305   0.74709  -1.25730
  41                    0.81448   0.73411  -1.26238
  42                    0.80590   0.72148  -1.26721
  43                    0.79722   0.70936  -1.27177
  44                    0.78840   0.69743  -1.27620
  45                    0.77939   0.68545  -1.28056
  46                    0.77008   0.67313  -1.28489
  47                    0.76032   0.66011  -1.28922
  48                    0.74998   0.64606  -1.29352
  49                    0.73900   0.63077  -1.29770
  50                    0.72760   0.61447  -1.30160
  51                    0.71602   0.59769  -1.30512
  52                    0.70439   0.58108  -1.30831
  53                    0.69267   0.56548  -1.31128
  54                    0.68076   0.55218  -1.31416
  55                    0.66868   0.54261  -1.31707
  56                    0.65666   0.53678  -1.32010
  57                    0.64501   0.53325  -1.32331
  58                    0.63406   0.53100  -1.32679
  59                    0.62425   0.52992  -1.33066
  60                    0.61594   0.53036  -1.33505
  61                    0.60928   0.53276  -1.34005
  62                    0.60417   0.53736  -1.34564
  63                    0.60032   0.54412  -1.35162
  64                    0.59744   0.55279  -1.35755
  65                    0.59547   0.56311  -1.36283
  66                    0.59470   0.57481  -1.36687
  67                    0.59537   0.58761  -1.36956
  68                    0.59728   0.60118  -1.37121
  69                    0.60007   0.61526  -1.37219
  70                    0.60342   0.62969  -1.37276
  71                    0.60713   0.64433  -1.37304
  72                    0.61105   0.65908  -1.37313
  73                    0.61512   0.67388  -1.37306
  74                    0.61928   0.68865  -1.37286
  75                    0.62351   0.70335  -1.37256
  76                    0.62778   0.71794  -1.37218
  77                    0.63207   0.73239  -1.37174
  78                    0.63639   0.74666  -1.37125
  79                    0.64071   0.76075  -1.37075
  80                    0.64502   0.77463  -1.37026
  81                    0.64929   0.78827  -1.36981
 --------------------------------------------------------------------------
 
 Total number of points:                   80
 Total number of gradient calculations:    81
 Total number of Hessian calculations:     81
 IRC-IRC-IRC-IRC-IRC-IRC-IRC-IRC-IRC-IRC-IRC-IRC-IRC-IRC-IRC-IRC-IRC-IRC
                          Input orientation:                          
 ---------------------------------------------------------------------
 Center     Atomic      Atomic             Coordinates (Angstroms)
 Number     Number       Type             X           Y           Z
 ---------------------------------------------------------------------
      1          6           0       -0.660171    0.455510    0.447734
      2          6           0        0.706893    0.512896   -0.152440
      3          6           0        1.716263   -0.227794    0.325988
      4          8           0       -1.503701   -0.253604   -0.479072
      5          8           0       -2.868355   -0.122417    0.034847
      6          8           0        3.003960   -0.240238   -0.112739
      7          1           0       -3.100915   -1.062434    0.140078
      8          1           0       -1.082226    1.457539    0.593113
      9          1           0       -0.655770   -0.067933    1.413577
     10          1           0        1.595396   -0.911181    1.162315
     11          1           0        3.106215    0.367866   -0.864741
     12          1           0        0.858410    1.178282   -1.002437
 ---------------------------------------------------------------------
                    Distance matrix (angstroms):
                    1          2          3          4          5
     1  C    0.000000
     2  C    1.494111   0.000000
     3  C    2.475715   1.340277   0.000000
     4  O    1.439915   2.362400   3.319179   0.000000
     5  O    2.319601   3.636082   4.595061   1.464105   0.000000
     6  O    3.771479   2.417706   1.360441   4.522541   5.875350
     7  H    2.890681   4.131178   4.892482   1.894372   0.974058
     8  H    1.096963   2.156188   3.277689   2.062822   2.449118
     9  H    1.098574   2.155602   2.614372   2.082206   2.607565
    10  H    2.732408   2.132138   1.086770   3.568047   4.671017
    11  H    3.989478   2.507021   1.924737   4.667578   6.061775
    12  H    2.220694   1.090042   2.116052   2.811365   4.081243
                    6          7          8          9         10
     6  O    0.000000
     7  H    6.165177   0.000000
     8  H    4.480802   3.260461   0.000000
     9  H    3.968998   2.930796   1.783842   0.000000
    10  H    2.014939   4.808657   3.620012   2.417012   0.000000
    11  H    0.972499   6.448556   4.566811   4.419636   2.833283
    12  H    2.721607   4.690671   2.527811   3.111738   3.097604
                   11         12
    11  H    0.000000
    12  H    2.393400   0.000000
 Symmetry turned off by external request.
 Stoichiometry    C3H6O3
 Framework group  C1[X(C3H6O3)]
 Deg. of freedom    30
 Full point group                 C1      NOp   1
 Rotational constants (GHZ):          18.4026104           1.2771459           1.2703849

 **********************************************************************

            Population analysis using the SCF Density.

 **********************************************************************

 Alpha  occ. eigenvalues --  -19.21396 -19.21329 -19.20818 -10.26804 -10.24847
 Alpha  occ. eigenvalues --  -10.19978  -1.11792  -1.08247  -0.92156  -0.78785
 Alpha  occ. eigenvalues --   -0.68013  -0.62169  -0.53669  -0.53401  -0.48805
 Alpha  occ. eigenvalues --   -0.47381  -0.43341  -0.42081  -0.40945  -0.38422
 Alpha  occ. eigenvalues --   -0.37137  -0.32020  -0.26793  -0.25169
 Alpha virt. eigenvalues --   -0.01718  -0.00681   0.01094   0.02021   0.02552
 Alpha virt. eigenvalues --    0.03822   0.05832   0.07014   0.07939   0.09519
 Alpha virt. eigenvalues --    0.10625   0.10832   0.12101   0.13738   0.15952
 Alpha virt. eigenvalues --    0.17411   0.18412   0.18942   0.20413   0.21066
 Alpha virt. eigenvalues --    0.21976   0.22900   0.23573   0.23859   0.25993
 Alpha virt. eigenvalues --    0.26453   0.27159   0.29053   0.30348   0.32115
 Alpha virt. eigenvalues --    0.33937   0.35115   0.35754   0.38832   0.41552
 Alpha virt. eigenvalues --    0.44577   0.58836   0.65267   0.68504   0.68788
 Alpha virt. eigenvalues --    0.74379   0.78359   0.83942   0.85878   0.89074
 Alpha virt. eigenvalues --    0.93053   0.96043   0.99526   1.01050   1.01600
 Alpha virt. eigenvalues --    1.05161   1.09366   1.12594   1.15728   1.16507
 Alpha virt. eigenvalues --    1.18248   1.18563   1.22357   1.24228   1.28285
 Alpha virt. eigenvalues --    1.31729   1.35706   1.38753   1.41132   1.44755
 Alpha virt. eigenvalues --    1.52806   1.55326   1.58632   1.62838   1.67075
 Alpha virt. eigenvalues --    1.68323   1.73438   1.77906   1.79600   1.82612
 Alpha virt. eigenvalues --    1.87166   1.96254   1.97685   2.00449   2.07421
 Alpha virt. eigenvalues --    2.12424   2.22037   2.23557   2.29981   2.32945
 Alpha virt. eigenvalues --    2.37876   2.40597   2.51023   2.52888   2.54458
 Alpha virt. eigenvalues --    2.66016   2.78658   2.86335   2.88985   3.04064
 Alpha virt. eigenvalues --    3.16816   3.94789   4.05141   4.24431   4.27860
 Alpha virt. eigenvalues --    4.38012   4.47477
          Condensed to atoms (all electrons):
               1          2          3          4          5          6
     1  C    5.849474  -0.490143   0.026126   0.102052   0.033685   0.021416
     2  C   -0.490143   6.133846   0.447176   0.026653  -0.054183  -0.078827
     3  C    0.026126   0.447176   4.929577  -0.047710   0.012624   0.216372
     4  O    0.102052   0.026653  -0.047710   8.147423   0.051751  -0.001512
     5  O    0.033685  -0.054183   0.012624   0.051751   8.282564   0.000162
     6  O    0.021416  -0.078827   0.216372  -0.001512   0.000162   8.319696
     7  H    0.005010  -0.000230  -0.000067  -0.034305   0.194177  -0.000000
     8  H    0.360137   0.021750  -0.018819  -0.049352  -0.005314  -0.000297
     9  H    0.478324  -0.151757   0.016882  -0.062516   0.007856   0.000994
    10  H    0.046319  -0.150290   0.444560   0.000667   0.000015  -0.069774
    11  H    0.034565  -0.020197  -0.035014   0.000066   0.000003   0.189185
    12  H    0.033865   0.269463  -0.013247   0.003483  -0.000216  -0.011065
               7          8          9         10         11         12
     1  C    0.005010   0.360137   0.478324   0.046319   0.034565   0.033865
     2  C   -0.000230   0.021750  -0.151757  -0.150290  -0.020197   0.269463
     3  C   -0.000067  -0.018819   0.016882   0.444560  -0.035014  -0.013247
     4  O   -0.034305  -0.049352  -0.062516   0.000667   0.000066   0.003483
     5  O    0.194177  -0.005314   0.007856   0.000015   0.000003  -0.000216
     6  O   -0.000000  -0.000297   0.000994  -0.069774   0.189185  -0.011065
     7  H    0.367410  -0.000556   0.001582   0.000000  -0.000000   0.000002
     8  H   -0.000556   0.548127  -0.049136   0.000046  -0.000004  -0.004984
     9  H    0.001582  -0.049136   0.572433   0.003219   0.000007   0.003952
    10  H    0.000000   0.000046   0.003219   0.521074   0.007352   0.004108
    11  H   -0.000000  -0.000004   0.000007   0.007352   0.353029   0.005803
    12  H    0.000002  -0.004984   0.003952   0.004108   0.005803   0.531563
 Mulliken charges:
               1
     1  C   -0.500829
     2  C    0.046739
     3  C    0.021540
     4  O   -0.136702
     5  O   -0.523121
     6  O   -0.586350
     7  H    0.466979
     8  H    0.198403
     9  H    0.178160
    10  H    0.192705
    11  H    0.465205
    12  H    0.177272
 Sum of Mulliken charges =  -0.00000
 Mulliken charges with hydrogens summed into heavy atoms:
               1
     1  C   -0.124266
     2  C    0.224011
     3  C    0.214244
     4  O   -0.136702
     5  O   -0.056143
     6  O   -0.121145
 APT charges:
               1
     1  C   -1.004886
     2  C   -0.336090
     3  C   -0.187898
     4  O   -0.091999
     5  O   -0.815340
     6  O   -0.614892
     7  H    0.703041
     8  H    0.472660
     9  H    0.373026
    10  H    0.403139
    11  H    0.685803
    12  H    0.413437
 Sum of APT charges =  -0.00000
 APT charges with hydrogens summed into heavy atoms:
               1
     1  C   -0.159201
     2  C    0.077347
     3  C    0.215241
     4  O   -0.091999
     5  O   -0.112299
     6  O    0.070911
 Electronic spatial extent (au):  <R**2>=            875.5423
 Charge=             -0.0000 electrons
 Dipole moment (field-independent basis, Debye):
    X=              0.9081    Y=             -0.0454    Z=              0.4755  Tot=              1.0260
 Quadrupole moment (field-independent basis, Debye-Ang):
   XX=            -38.6644   YY=            -33.7677   ZZ=            -35.1638
   XY=              7.3815   XZ=             -5.6436   YZ=             -3.1314
 Traceless Quadrupole moment (field-independent basis, Debye-Ang):
   XX=             -2.7991   YY=              2.0976   ZZ=              0.7015
   XY=              7.3815   XZ=             -5.6436   YZ=             -3.1314
 Octapole moment (field-independent basis, Debye-Ang**2):
  XXX=            -16.9222  YYY=             -5.6985  ZZZ=             -4.0436  XYY=             -9.5885
  XXY=             -8.2118  XXZ=             -9.9055  XZZ=              5.6244  YZZ=             -1.3212
  YYZ=             -0.9800  XYZ=             -4.0667
 Hexadecapole moment (field-independent basis, Debye-Ang**3):
 XXXX=           -914.8468 YYYY=            -76.7175 ZZZZ=            -77.6397 XXXY=            100.3942
 XXXZ=            -56.0218 YYYX=              8.6141 YYYZ=             -2.5434 ZZZX=             -4.9568
 ZZZY=             -3.2847 XXYY=           -140.6195 XXZZ=           -151.8159 YYZZ=            -24.9410
 XXYZ=            -15.4876 YYXZ=             -1.9335 ZZXY=              2.0492
 N-N= 2.284914605609D+02 E-N=-1.261735193725D+03  KE= 3.403428321262D+02
  Exact polarizability:   0.000   0.000   0.000   0.000   0.000   0.000
 Approx polarizability: 102.469 -10.540  61.862   0.565  -6.887  59.610

 This type of calculation cannot be archived.


 Time has a wonderful way of weeding out the trivial.
                                -- Richard Ben Sapir
 Job cpu time:       0 days  5 hours 35 minutes 11.7 seconds.
 Elapsed time:       0 days  0 hours 21 minutes 29.1 seconds.
 File lengths (MBytes):  RWF=     28 Int=      0 D2E=      0 Chk=      4 Scr=      1
 Normal termination of Gaussian 16 at Wed Dec 23 22:38:22 2020.
