[Molden Format]
[Geometries] (XYZ)
12

C        0.578785       1.472826      -2.507271
C        0.299032       0.419914      -1.427973
C        1.555825       0.118438      -0.652952
O        0.987038       2.696263      -1.955363
O        2.250773       2.523290      -1.325445
O        1.651847       0.163717       0.540930
H        2.161532       3.014926      -0.496716
H        1.337094       1.105475      -3.210069
H       -0.331830       1.732799      -3.050818
H        2.407803      -0.181707      -1.291430
H       -0.033399      -0.498511      -1.914133
H       -0.475501       0.772080      -0.744551
12

C        0.616627       1.403993      -2.555736
C        0.277602       0.436229      -1.419138
C        1.612178       0.073470      -0.797553
O        0.931772       2.632229      -1.932407
O        2.110723       2.346302      -1.130059
O        1.925929       0.165097       0.358610
H        1.920336       3.015300      -0.472522
H        1.486823       1.116849      -3.160724
H       -0.238986       1.528073      -3.218328
H        2.304308      -0.347630      -1.554759
H       -0.170460      -0.514744      -1.663699
H       -0.500037       1.082530      -0.901578
12

C        0.651933       1.377327      -2.539883
C        0.291746       0.488959      -1.350869
C        1.653780       0.012668      -0.879230
O        0.849893       2.630908      -1.926999
O        1.939510       2.300812      -0.923902
O        2.197178       0.105871       0.178834
H        1.661783       3.098517      -0.485416
H        1.588850       1.142882      -3.071959
H       -0.156972       1.362288      -3.271992
H        2.149585      -0.516525      -1.719824
H       -0.281667      -0.421491      -1.484541
H       -0.517989       1.407467      -1.080123
12

C        0.679956       1.362574      -2.512871
C        0.333698       0.553525      -1.258471
C        1.700965      -0.052788      -0.963555
O        0.724443       2.635256      -1.980259
O        1.794816       2.263749      -0.744947
O        2.396914       0.006178      -0.000079
H        1.493287       3.156596      -0.534151
H        1.673543       1.181121      -2.962404
H       -0.071479       1.209925      -3.297748
H        2.003183      -0.661744      -1.842935
H       -0.279455      -0.346312      -1.370440
H       -0.564835       1.712791      -1.248556
12

C        0.681513       1.427427      -2.494451
C        0.461388       0.697852      -1.186051
C        1.814521      -0.042291      -0.930111
O        0.541429       2.723978      -2.040162
O        1.747089       2.160782      -0.549950
O        2.537294       0.016814       0.013306
H        1.445088       3.068103      -0.416647
H        1.680894       1.273071      -2.930020
H       -0.062440       1.183729      -3.272612
H        2.028458      -0.737344      -1.776193
H       -0.143212      -0.205314      -1.218563
H       -0.545434       2.101574      -1.389731
12

C        0.700694       1.549897      -2.408601
C        0.591278       0.874739      -1.057634
C        1.911219      -0.004835      -0.852540
O        0.420508       2.851444      -2.036846
O        1.619109       2.046535      -0.355511
O        2.755391       0.066566      -0.028255
H        1.320311       2.963238      -0.322118
H        1.717169       1.426612      -2.803650
H       -0.000410       1.222977      -3.194285
H        1.967547      -0.791455      -1.642210
H       -0.046492       0.020291      -0.942175
H       -0.552456       2.428295      -1.521097
12

C        0.778289       1.641515      -2.283882
C        0.739241       0.990634      -0.920767
C        1.978277       0.019758      -0.818017
O        0.343752       2.928258      -1.991360
O        1.527773       2.035867      -0.117854
O        2.929624       0.113553      -0.119916
H        1.262176       2.951744      -0.246073
H        1.808663       1.615000      -2.649798
H        0.128648       1.214253      -3.060615
H        1.862100      -0.851307      -1.510741
H       -0.011640       0.252171      -0.686870
H       -0.589478       2.593300      -1.595662
12

C        0.812045       1.583979      -2.321055
C        0.858293       0.938260      -0.945631
C        1.986526      -0.109097      -0.947994
O        0.219329       2.840199      -2.151427
O        1.456057       1.919735      -0.056728
O        3.024856      -0.021510      -0.390788
H        1.214825       2.819253      -0.298990
H        1.840852       1.708243      -2.673033
H        0.253958       1.002573      -3.069117
H        1.724704      -1.003206      -1.559614
H       -0.015111       0.355361      -0.659176
H       -0.688652       2.589691      -1.850075
12

C        0.771336       1.402653      -2.405887
C        1.016472       0.934622      -0.951495
C        1.971530      -0.242008      -0.974121
O        0.010358       2.581036      -2.418011
O        1.513751       1.986757      -0.177207
O        3.117532      -0.222640      -0.645400
H        1.300034       2.817952      -0.625443
H        1.728056       1.665352      -2.864176
H        0.298373       0.603537      -2.989135
H        1.485779      -1.163861      -1.357865
H        0.056651       0.580395      -0.528360
H       -0.880873       2.395714      -2.098688
[GEOCONV]
energy
0.0
12.3155249032
48.4377450419
109.040035022
151.130542513
74.1081581798
11.2410313889
-26.4055524091
-38.0002305483
max-force
3.16398127833e-05
0.00456006521936
0.00854098381098
0.00736690250284
0.00785482480167
0.00875008159518
0.00965180275976
0.00543621111162
4.20273743647e-05
max-step
1000.0
1000.0
1000.0
1000.0
1000.0
1000.0
1000.0
1000.0
1000.0
