[Molden Format]
[Geometries] (XYZ)
12

C        0.578785       1.472826      -2.507271
C        0.299032       0.419914      -1.427973
C        1.555825       0.118438      -0.652952
O        0.987038       2.696263      -1.955363
O        2.250773       2.523290      -1.325445
O        1.651847       0.163717       0.540930
H        2.161532       3.014926      -0.496716
H        1.337094       1.105475      -3.210069
H       -0.331830       1.732799      -3.050818
H        2.407803      -0.181707      -1.291430
H       -0.033399      -0.498511      -1.914133
H       -0.475501       0.772080      -0.744551
12

C        0.618163       1.448452      -2.529232
C        0.279675       0.486587      -1.385584
C        1.601150       0.092854      -0.763297
O        0.928853       2.680465      -1.901992
O        2.098316       2.429389      -1.107774
O        1.901737       0.158561       0.399560
H        1.916481       3.117740      -0.458857
H        1.490749       1.164538      -3.133744
H       -0.240299       1.571169      -3.191498
H        2.285317      -0.339753      -1.522836
H       -0.186257      -0.469827      -1.611398
H       -0.457080       1.118478      -0.869845
12

C        0.659164       1.434894      -2.510510
C        0.294025       0.540657      -1.310523
C        1.642280       0.036968      -0.832815
O        0.862712       2.681118      -1.885191
O        1.921581       2.378761      -0.890277
O        2.197363       0.129194       0.220514
H        1.655069       3.197013      -0.467639
H        1.596860       1.206092      -3.042422
H       -0.149399       1.425649      -3.242429
H        2.117512      -0.512468      -1.672552
H       -0.297096      -0.363767      -1.435987
H       -0.464534       1.431136      -1.053900
12

C        0.721133       1.427512      -2.473331
C        0.369875       0.621906      -1.196076
C        1.705499      -0.040967      -0.901485
O        0.752218       2.696658      -1.913894
O        1.794436       2.408272      -0.701579
O        2.397336      -0.019202       0.066029
H        1.513619       3.317225      -0.522163
H        1.715461       1.271171      -2.929653
H       -0.033587       1.271880      -3.253044
H        1.974970      -0.656218      -1.788978
H       -0.247356      -0.281543      -1.318008
H       -0.434752       1.750501      -1.196337
12

C        0.700155       1.415996      -2.525926
C        0.506780       0.663461      -1.222627
C        1.825044      -0.054920      -0.902441
O        0.549004       2.709906      -2.025376
O        1.872575       2.293065      -0.571794
O        2.431873      -0.038363       0.119222
H        1.579628       3.193562      -0.397499
H        1.675482       1.282633      -3.007529
H       -0.079041       1.193569      -3.271350
H        2.097481      -0.730272      -1.746000
H       -0.088594      -0.254718      -1.293878
H       -0.376645       2.099235      -1.366867
12

C        0.703226       1.442814      -2.514978
C        0.598479       0.787326      -1.147839
C        1.908993      -0.099142      -0.903627
O        0.441733       2.757285      -2.132513
O        1.680272       1.996931      -0.486715
O        2.706034      -0.042444      -0.033342
H        1.381339       2.909071      -0.407963
H        1.705754       1.308148      -2.934827
H       -0.019064       1.116037      -3.280495
H        1.992002      -0.879364      -1.700701
H       -0.028275      -0.082700      -1.054846
H       -0.444480       2.358921      -1.593290
12

C        0.760011       1.462943      -2.476877
C        0.706864       0.830898      -1.099760
C        1.943947      -0.154974      -0.970668
O        0.364631       2.766786      -2.181498
O        1.534871       1.874844      -0.335145
O        2.882351      -0.067665      -0.256792
H        1.271256       2.792873      -0.446180
H        1.786127       1.402169      -2.847555
H        0.096676       1.048630      -3.250201
H        1.838579      -1.021031      -1.672332
H       -0.034627       0.081448      -0.871969
H       -0.544806       2.450288      -1.773973
12

C        0.806042       1.481475      -2.441315
C        0.839833       0.849886      -1.050163
C        1.960229      -0.214785      -1.034203
O        0.245956       2.761996      -2.272776
O        1.449264       1.819196      -0.193839
O        2.995450      -0.128428      -0.470418
H        1.205730       2.721421      -0.430914
H        1.835766       1.569513      -2.799448
H        0.225936       0.914133      -3.182895
H        1.697566      -1.109595      -1.644899
H       -0.030903       0.269733      -0.758315
H       -0.640044       2.537069      -1.965436
12

C        0.771336       1.402653      -2.405887
C        1.016472       0.934622      -0.951495
C        1.971530      -0.242008      -0.974121
O        0.010358       2.581036      -2.418011
O        1.513751       1.986757      -0.177207
O        3.117532      -0.222640      -0.645400
H        1.300034       2.817952      -0.625443
H        1.728056       1.665352      -2.864176
H        0.298373       0.603537      -2.989135
H        1.485779      -1.163861      -1.357865
H        0.056651       0.580395      -0.528360
H       -0.880873       2.395714      -2.098688
[GEOCONV]
energy
0.0
10.3199096864
42.607119224
97.214521329
140.099208017
76.6051027446
15.0557123961
-26.2730433106
-38.0002305483
max-force
3.16398127833e-05
0.00269475006317
0.00672592105922
0.00642137579014
0.004861263825
0.00951620091015
0.00895358982098
0.00352355240137
4.20273743647e-05
max-step
1000.0
1000.0
1000.0
1000.0
1000.0
1000.0
1000.0
1000.0
1000.0
