[Molden Format]
[Geometries] (XYZ)
12

C        1.461437       1.414908      -2.450422
C        0.272534       0.545852      -2.000534
C        0.545187       0.016894      -0.613911
O        1.539441       2.632035      -1.766344
O        1.895962       2.384973      -0.404520
O        1.317301      -0.867740      -0.376499
H        2.085001       3.274061      -0.076518
H        2.393291       0.848100      -2.334943
H        1.338866       1.724866      -3.490974
H       -0.015391       0.521109       0.193467
H        0.196807      -0.292913      -2.693143
H       -0.641346       1.137764      -2.021569
12

C        1.479393       1.381353      -2.530248
C        0.326127       0.465791      -2.057787
C        0.717163       0.120161      -0.659854
O        1.641058       2.534885      -1.749447
O        1.991210       2.145733      -0.410490
O        1.388425      -0.768895      -0.255803
H        1.984310       3.020532       0.105781
H        2.420924       0.823365      -2.533817
H        1.264500       1.777712      -3.527493
H       -0.017470       0.821505       0.094996
H        0.274645      -0.414270      -2.700840
H       -0.639400       0.975010      -2.058700
12

C        1.493475       1.348589      -2.621692
C        0.378542       0.419052      -2.089442
C        0.855763       0.195551      -0.685657
O        1.688807       2.443848      -1.761428
O        2.027898       1.942713      -0.463910
O        1.461043      -0.672761      -0.161135
H        1.803766       2.670181       0.228100
H        2.434806       0.800965      -2.719467
H        1.214138       1.795460      -3.578905
H        0.024157       1.084623      -0.042987
H        0.320287      -0.499701      -2.679968
H       -0.597367       0.903656      -2.076266
12

C        1.463655       1.346471      -2.725035
C        0.393820       0.423451      -2.126690
C        0.954192       0.272972      -0.737161
O        1.669490       2.384381      -1.811947
O        1.997640       1.779574      -0.567098
O        1.488961      -0.604965      -0.157602
H        1.538470       2.486518       0.447080
H        2.398782       0.805981      -2.895376
H        1.134933       1.822550      -3.650935
H       -0.009455       1.452452      -0.051734
H        0.311924      -0.524370      -2.668996
H       -0.586554       0.903290      -2.086841
12

C        1.420622       1.352526      -2.810598
C        0.391668       0.444176      -2.152346
C        1.023709       0.335332      -0.789876
O        1.632707       2.351438      -1.866024
O        1.955622       1.660564      -0.669071
O        1.486521      -0.565571      -0.194517
H        1.236881       2.402084       0.721708
H        2.352160       0.812905      -3.033433
H        1.052185       1.840019      -3.714477
H       -0.050149       1.843348       0.058085
H        0.289362      -0.517942      -2.654862
H       -0.589409       0.917475      -2.084041
12

C        1.361415       1.365236      -2.906021
C        0.382863       0.460638      -2.185992
C        1.080938       0.376768      -0.841479
O        1.629671       2.328054      -1.936011
O        1.930883       1.572374      -0.776765
O        1.442153      -0.545533      -0.198103
H        0.860674       2.293145       0.928310
H        2.271990       0.829447      -3.213304
H        0.933110       1.878510      -3.768693
H       -0.074379       2.241417       0.160099
H        0.261320      -0.511641      -2.659425
H       -0.597361       0.929764      -2.078672
12

C        1.287748       1.387522      -2.985808
C        0.362837       0.477159      -2.203172
C        1.137470       0.387672      -0.895844
O        1.711061       2.295075      -2.008048
O        1.989004       1.494211      -0.873783
O        1.367952      -0.527919      -0.181555
H        0.407858       2.216426       0.963698
H        2.135751       0.836188      -3.421902
H        0.790958       1.966655      -3.764147
H       -0.130199       2.541452       0.249134
H        0.218415      -0.499329      -2.659674
H       -0.611826       0.936413      -2.026835
12

C        1.329586       1.365902      -2.941980
C        0.461448       0.437837      -2.108026
C        1.320945       0.320490      -0.855504
O        1.958073       2.184199      -1.977445
O        2.208407       1.346875      -0.865113
O        1.411086      -0.558386      -0.061374
H        0.097415       2.169241       0.984128
H        2.075143       0.805172      -3.525528
H        0.776016       2.036144      -3.598520
H       -0.137936       2.703850       0.440996
H        0.284961      -0.534648      -2.560585
H       -0.496857       0.888178      -1.842541
12

C        1.499910       1.418804      -2.846198
C        0.588353       0.487536      -2.059155
C        1.447279       0.227900      -0.825329
O        2.320888       2.035703      -1.864750
O        2.448498       1.123824      -0.793695
O        1.318221      -0.612700       0.007987
H       -0.186315       2.160497       0.939342
H        2.121588       0.862017      -3.560424
H        0.985827       2.232442      -3.357434
H       -0.166111       2.874119       0.630663
H        0.346817      -0.440372      -2.570565
H       -0.335864       0.970139      -1.736352
[GEOCONV]
energy
0.0
10.6177063428
26.8261194931
79.4081480874
90.8425540883
42.8972756074
9.75344127195
-1.89388014302
-3.30001448505
max-force
1.86194493603e-05
0.0097794137574
0.00760171171398
0.00964139188547
0.00721980994201
0.0096421325078
0.00719752626675
0.000961659619951
4.68833429798e-05
max-step
1000.0
1000.0
1000.0
1000.0
1000.0
1000.0
1000.0
1000.0
1000.0
