[Molden Format]
[Geometries] (XYZ)
12

C        1.461437       1.414908      -2.450422
C        0.272534       0.545852      -2.000534
C        0.545187       0.016894      -0.613911
O        1.539441       2.632035      -1.766344
O        1.895962       2.384973      -0.404520
O        1.317301      -0.867740      -0.376499
H        2.085001       3.274061      -0.076518
H        2.393291       0.848100      -2.334943
H        1.338866       1.724866      -3.490974
H       -0.015391       0.521109       0.193467
H        0.196807      -0.292913      -2.693143
H       -0.641346       1.137764      -2.021569
12

C        1.444509       1.402255      -2.539969
C        0.291869       0.487413      -2.065865
C        0.675686       0.138778      -0.662437
O        1.604212       2.555234      -1.761468
O        1.953298       2.169709      -0.424132
O        1.346833      -0.752516      -0.258549
H        1.949515       3.024727       0.078995
H        2.384747       0.844205      -2.543350
H        1.230500       1.799396      -3.537818
H       -0.045360       0.821886       0.074520
H        0.245162      -0.394378      -2.708231
H       -0.675136       0.997021      -2.070249
12

C        1.455588       1.388379      -2.636039
C        0.349008       0.451159      -2.101149
C        0.780336       0.223601      -0.656376
O        1.656558       2.481691      -1.782985
O        1.991251       1.986596      -0.499400
O        1.366330      -0.655394      -0.118150
H        1.760250       2.643124       0.141836
H        2.395667       0.838672      -2.737439
H        1.177515       1.835128      -3.593320
H        0.039970       0.992105      -0.067569
H        0.304491      -0.469010      -2.688208
H       -0.621719       0.945078      -2.110600
12

C        1.480013       1.375273      -2.707542
C        0.414799       0.432387      -2.106253
C        0.918903       0.295865      -0.666783
O        1.693725       2.412322      -1.786671
O        1.990431       1.804427      -0.558007
O        1.414703      -0.580659      -0.044140
H        1.544517       2.296014       0.243761
H        2.411233       0.836463      -2.885710
H        1.152273       1.857939      -3.629620
H        0.073507       1.265181      -0.066090
H        0.357822      -0.527466      -2.632319
H       -0.564419       0.918076      -2.106755
12

C        1.511600       1.351427      -2.743919
C        0.465302       0.440121      -2.076937
C        1.043364       0.338666      -0.683135
O        1.719761       2.362735      -1.799297
O        2.005561       1.642167      -0.623136
O        1.491472      -0.566420      -0.067706
H        1.307787       2.187655       0.548843
H        2.441599       0.802581      -2.938765
H        1.162803       1.817443      -3.664770
H        0.072210       1.536538       0.166407
H        0.397120      -0.531254      -2.562883
H       -0.516054       0.911116      -2.059752
12

C        1.525602       1.341612      -2.779377
C        0.528986       0.422749      -2.089444
C        1.182766       0.340366      -0.720475
O        1.744995       2.303954      -1.790851
O        2.032297       1.528526      -0.646959
O        1.561479      -0.583790      -0.086197
H        1.067421       2.178545       0.946937
H        2.451945       0.815968      -3.050505
H        1.125871       1.846056      -3.659916
H        0.074697       2.003750       0.327019
H        0.428940      -0.547786      -2.570182
H       -0.454047       0.892214      -2.019666
12

C        1.510177       1.346654      -2.820353
C        0.570709       0.407386      -2.084059
C        1.304934       0.319009      -0.750048
O        1.860975       2.249766      -1.804498
O        2.131534       1.420581      -0.692781
O        1.549232      -0.610200      -0.055277
H        0.671059       2.120969       1.096209
H        2.390755       0.818359      -3.218766
H        1.039354       1.919976      -3.618260
H        0.103879       2.357612       0.457104
H        0.453635      -0.563905      -2.558404
H       -0.414747       0.855271      -1.940151
12

C        1.452511       1.364607      -2.847292
C        0.574289       0.409938      -2.051097
C        1.420426       0.273797      -0.790065
O        2.049396       2.171299      -1.846739
O        2.285380       1.309179      -0.751164
O        1.499034      -0.623699      -0.013528
H        0.215312       2.100237       1.069933
H        2.219147       0.820724      -3.417578
H        0.912511       2.043037      -3.506216
H       -0.038482       2.592037       0.532340
H        0.404805      -0.553816      -2.523512
H       -0.387535       0.854591      -1.788488
12

C        1.499910       1.418804      -2.846198
C        0.588353       0.487536      -2.059155
C        1.447279       0.227900      -0.825329
O        2.320888       2.035703      -1.864750
O        2.448498       1.123824      -0.793695
O        1.318221      -0.612700       0.007987
H       -0.186315       2.160497       0.939342
H        2.121588       0.862017      -3.560424
H        0.985827       2.232442      -3.357434
H       -0.166111       2.874119       0.630663
H        0.346817      -0.440372      -2.570565
H       -0.335864       0.970139      -1.736352
[GEOCONV]
energy
0.0
8.0751832674
13.6405868661
39.7431552113
77.5287376351
45.1790780785
7.48233791896
-2.06437779912
-3.30001448505
max-force
1.86194493603e-05
0.00775399444278
0.00598389014994
0.00656375606387
0.00499829159409
0.00986993700249
0.00548192851519
0.000817306755628
4.68833429798e-05
max-step
1000.0
1000.0
1000.0
1000.0
1000.0
1000.0
1000.0
1000.0
1000.0
