 Entering Gaussian System, Link 0=g16
 Initial command:
 /apps/cent7/gaussian/g16-B.01/g16-haswell/g16/l1.exe "/scratch/brown/zhao922/pyGSM/new-benchmarking/R1-3/TS-folder/Gau-203071.inp" -scrdir="/scratch/brown/zhao922/pyGSM/new-benchmarking/R1-3/TS-folder/"
 Entering Link 1 = /apps/cent7/gaussian/g16-B.01/g16-haswell/g16/l1.exe PID=    203073.
  
 Copyright (c) 1988-2017, Gaussian, Inc.  All Rights Reserved.
  
 This is part of the Gaussian(R) 16 program.  It is based on
 the Gaussian(R) 09 system (copyright 2009, Gaussian, Inc.),
 the Gaussian(R) 03 system (copyright 2003, Gaussian, Inc.),
 the Gaussian(R) 98 system (copyright 1998, Gaussian, Inc.),
 the Gaussian(R) 94 system (copyright 1995, Gaussian, Inc.),
 the Gaussian 92(TM) system (copyright 1992, Gaussian, Inc.),
 the Gaussian 90(TM) system (copyright 1990, Gaussian, Inc.),
 the Gaussian 88(TM) system (copyright 1988, Gaussian, Inc.),
 the Gaussian 86(TM) system (copyright 1986, Carnegie Mellon
 University), and the Gaussian 82(TM) system (copyright 1983,
 Carnegie Mellon University). Gaussian is a federally registered
 trademark of Gaussian, Inc.
  
 This software contains proprietary and confidential information,
 including trade secrets, belonging to Gaussian, Inc.
  
 This software is provided under written license and may be
 used, copied, transmitted, or stored only in accord with that
 written license.
  
 The following legend is applicable only to US Government
 contracts under FAR:
  
                    RESTRICTED RIGHTS LEGEND
  
 Use, reproduction and disclosure by the US Government is
 subject to restrictions as set forth in subparagraphs (a)
 and (c) of the Commercial Computer Software - Restricted
 Rights clause in FAR 52.227-19.
  
 Gaussian, Inc.
 340 Quinnipiac St., Bldg. 40, Wallingford CT 06492
  
  
 ---------------------------------------------------------------
 Warning -- This program may not be used in any manner that
 competes with the business of Gaussian, Inc. or will provide
 assistance to any competitor of Gaussian, Inc.  The licensee
 of this program is prohibited from giving any competitor of
 Gaussian, Inc. access to this program.  By using this program,
 the user acknowledges that Gaussian, Inc. is engaged in the
 business of creating and licensing software in the field of
 computational chemistry and represents and warrants to the
 licensee that it is not a competitor of Gaussian, Inc. and that
 it will not use this program in any manner prohibited above.
 ---------------------------------------------------------------
  

 Cite this work as:
 Gaussian 16, Revision B.01,
 M. J. Frisch, G. W. Trucks, H. B. Schlegel, G. E. Scuseria, 
 M. A. Robb, J. R. Cheeseman, G. Scalmani, V. Barone, 
 G. A. Petersson, H. Nakatsuji, X. Li, M. Caricato, A. V. Marenich, 
 J. Bloino, B. G. Janesko, R. Gomperts, B. Mennucci, H. P. Hratchian, 
 J. V. Ortiz, A. F. Izmaylov, J. L. Sonnenberg, D. Williams-Young, 
 F. Ding, F. Lipparini, F. Egidi, J. Goings, B. Peng, A. Petrone, 
 T. Henderson, D. Ranasinghe, V. G. Zakrzewski, J. Gao, N. Rega, 
 G. Zheng, W. Liang, M. Hada, M. Ehara, K. Toyota, R. Fukuda, 
 J. Hasegawa, M. Ishida, T. Nakajima, Y. Honda, O. Kitao, H. Nakai, 
 T. Vreven, K. Throssell, J. A. Montgomery, Jr., J. E. Peralta, 
 F. Ogliaro, M. J. Bearpark, J. J. Heyd, E. N. Brothers, K. N. Kudin, 
 V. N. Staroverov, T. A. Keith, R. Kobayashi, J. Normand, 
 K. Raghavachari, A. P. Rendell, J. C. Burant, S. S. Iyengar, 
 J. Tomasi, M. Cossi, J. M. Millam, M. Klene, C. Adamo, R. Cammi, 
 J. W. Ochterski, R. L. Martin, K. Morokuma, O. Farkas, 
 J. B. Foresman, and D. J. Fox, Gaussian, Inc., Wallingford CT, 2016.
 
 ******************************************
 Gaussian 16:  ES64L-G16RevB.01 20-Dec-2017
                17-Jul-2020 
 ******************************************
 %NProcShared=24
 Will use up to   24 processors via shared memory.
 %Mem=60GB
 --------------------------------------------------------------
 # B3LYP/6-31G** OPT=(TS, CALCALL, NOEIGEN, maxcycles=100) Freq
 --------------------------------------------------------------
 1/5=1,6=100,10=4,11=1,18=20,26=3,38=1/1,3;
 2/9=110,12=2,17=6,18=5,40=1/2;
 3/5=1,6=6,7=101,11=2,25=1,30=1,71=2,74=-5,140=1/1,2,3;
 4//1;
 5/5=2,38=5/2;
 8/6=4,10=90,11=11/1;
 11/6=1,8=1,9=11,15=111,16=1/1,2,10;
 10/6=1/2;
 6/7=2,8=2,9=2,10=2,18=1,28=1/1;
 7/10=1,25=1/1,2,3,16;
 1/5=1,6=100,10=4,11=1,18=20,26=3/3(3);
 2/9=110/2;
 7/8=1,9=1,25=1,44=-1/16;
 99//99;
 2/9=110/2;
 3/5=1,6=6,7=101,11=2,25=1,30=1,71=2,74=-5,140=1/1,2,3;
 4/5=5,16=3,69=1/1;
 5/5=2,38=5/2;
 8/6=4,10=90,11=11/1;
 11/6=1,8=1,9=11,15=111,16=1/1,2,10;
 10/6=1/2;
 7/10=1,25=1/1,2,3,16;
 1/5=1,6=100,10=4,11=1,18=20,26=3/3(-8);
 2/9=110/2;
 6/7=2,8=2,9=2,10=2,18=1,19=2,28=1/1;
 7/8=1,9=1,25=1,44=-1/16;
 99//99;
 ---------
 pp_1_0 TS
 ---------
 Symbolic Z-matrix:
 Charge =  0 Multiplicity = 1
 C                    -2.54495   0.05048   0.83582 
 C                    -0.72296  -0.17527   2.27538 
 C                     0.40515  -0.09096   1.71351 
 H                    -1.44198  -0.05263   3.0438 
 H                    -3.27525  -0.049     1.61729 
 H                    -2.6758    0.97752   0.27311 
 H                    -2.63097  -0.77434   0.12624 
 H                    -0.71752   0.14535   0.57553 
 H                     1.471    -0.0186    1.84989 
 
 Add virtual bond connecting atoms H8         and C2         Dist= 3.27D+00.
 Add virtual bond connecting atoms H8         and C3         Dist= 3.05D+00.
 Add virtual bond connecting atoms H8         and C1         Dist= 3.49D+00.

 GradGradGradGradGradGradGradGradGradGradGradGradGradGradGradGradGradGrad
 Berny optimization.
 Initialization pass.
                           ----------------------------
                           !    Initial Parameters    !
                           ! (Angstroms and Degrees)  !
 --------------------------                            --------------------------
 ! Name  Definition              Value          Derivative Info.                !
 --------------------------------------------------------------------------------
 ! R1    R(1,5)                  1.0742         calculate D2E/DX2 analytically  !
 ! R2    R(1,6)                  1.0923         calculate D2E/DX2 analytically  !
 ! R3    R(1,7)                  1.0914         calculate D2E/DX2 analytically  !
 ! R4    R(1,8)                  1.8483         calculate D2E/DX2 analytically  !
 ! R5    R(2,3)                  1.2631         calculate D2E/DX2 analytically  !
 ! R6    R(2,4)                  1.0595         calculate D2E/DX2 analytically  !
 ! R7    R(2,8)                  1.7298         calculate D2E/DX2 analytically  !
 ! R8    R(3,8)                  1.6159         calculate D2E/DX2 analytically  !
 ! R9    R(3,9)                  1.077          calculate D2E/DX2 analytically  !
 ! A1    A(5,1,6)              111.8335         calculate D2E/DX2 analytically  !
 ! A2    A(5,1,7)              110.4507         calculate D2E/DX2 analytically  !
 ! A3    A(5,1,8)              141.2029         calculate D2E/DX2 analytically  !
 ! A4    A(6,1,7)              107.2786         calculate D2E/DX2 analytically  !
 ! A5    A(6,1,8)               90.1334         calculate D2E/DX2 analytically  !
 ! A6    A(7,1,8)               91.4414         calculate D2E/DX2 analytically  !
 ! A7    A(3,2,4)              157.0763         calculate D2E/DX2 analytically  !
 ! A8    A(4,2,8)              133.8991         calculate D2E/DX2 analytically  !
 ! A9    A(2,3,9)              146.31           calculate D2E/DX2 analytically  !
 ! A10   A(8,3,9)              140.0789         calculate D2E/DX2 analytically  !
 ! A11   A(1,8,2)               81.3146         calculate D2E/DX2 analytically  !
 ! A12   A(1,8,3)              125.4662         calculate D2E/DX2 analytically  !
 ! D1    D(5,1,8,2)              5.5418         calculate D2E/DX2 analytically  !
 ! D2    D(5,1,8,3)              7.6763         calculate D2E/DX2 analytically  !
 ! D3    D(6,1,8,2)            132.1592         calculate D2E/DX2 analytically  !
 ! D4    D(6,1,8,3)            134.2938         calculate D2E/DX2 analytically  !
 ! D5    D(7,1,8,2)           -120.5529         calculate D2E/DX2 analytically  !
 ! D6    D(7,1,8,3)           -118.4184         calculate D2E/DX2 analytically  !
 ! D7    D(4,2,3,9)             25.9241         calculate D2E/DX2 analytically  !
 ! D8    D(3,2,4,8)            131.5962         calculate D2E/DX2 analytically  !
 ! D9    D(4,2,8,1)            -21.5569         calculate D2E/DX2 analytically  !
 ! D10   D(2,3,8,9)            170.294          calculate D2E/DX2 analytically  !
 ! D11   D(9,3,8,1)           -173.3214         calculate D2E/DX2 analytically  !
 --------------------------------------------------------------------------------
 Trust Radius=3.00D-01 FncErr=1.00D-07 GrdErr=1.00D-06 EigMax=2.50D+02 EigMin=1.00D-04
 Number of steps in this run=    100 maximum allowed number of steps=    100.
 Search for a saddle point of order  1.
 GradGradGradGradGradGradGradGradGradGradGradGradGradGradGradGradGradGrad

                          Input orientation:                          
 ---------------------------------------------------------------------
 Center     Atomic      Atomic             Coordinates (Angstroms)
 Number     Number       Type             X           Y           Z
 ---------------------------------------------------------------------
      1          6           0       -2.544951    0.050477    0.835818
      2          6           0       -0.722956   -0.175265    2.275379
      3          6           0        0.405153   -0.090956    1.713505
      4          1           0       -1.441978   -0.052632    3.043802
      5          1           0       -3.275248   -0.048997    1.617286
      6          1           0       -2.675803    0.977517    0.273113
      7          1           0       -2.630965   -0.774343    0.126242
      8          1           0       -0.717517    0.145353    0.575525
      9          1           0        1.471001   -0.018597    1.849885
 ---------------------------------------------------------------------
                    Distance matrix (angstroms):
                    1          2          3          4          5
     1  C    0.000000
     2  C    2.333015   0.000000
     3  C    3.081144   1.263107   0.000000
     4  H    2.470298   1.059484   2.276632   0.000000
     5  H    1.074207   2.638792   3.681898   2.322895   0.000000
     6  H    1.092320   3.025159   3.564920   3.203162   1.794399
     7  H    1.091432   2.935674   3.493485   3.232138   1.778887
     8  H    1.848315   1.729835   1.615930   2.580006   2.768578
     9  H    4.142581   2.240321   1.076971   3.148340   4.752042
                    6          7          8          9
     6  H    0.000000
     7  H    1.758578   0.000000
     8  H    2.149147   2.170018   0.000000
     9  H    4.546915   4.513117   2.537811   0.000000
 Stoichiometry    C3H6
 Framework group  C1[X(C3H6)]
 Deg. of freedom    21
 Full point group                 C1      NOp   1
 Largest Abelian subgroup         C1      NOp   1
 Largest concise Abelian subgroup C1      NOp   1
                         Standard orientation:                         
 ---------------------------------------------------------------------
 Center     Atomic      Atomic             Coordinates (Angstroms)
 Number     Number       Type             X           Y           Z
 ---------------------------------------------------------------------
      1          6           0       -1.593763   -0.128947   -0.003492
      2          6           0        0.627976    0.581733    0.038585
      3          6           0        1.479334   -0.350959    0.011827
      4          1           0        0.221684    1.538281   -0.167438
      5          1           0       -1.995152    0.867364    0.009628
      6          1           0       -1.959987   -0.703251   -0.857433
      7          1           0       -1.884557   -0.669151    0.899195
      8          1           0        0.016963   -1.032148   -0.081333
      9          1           0        2.519761   -0.612055   -0.084140
 ---------------------------------------------------------------------
 Rotational constants (GHZ):          39.2141931           6.2563029           5.5880444
 Standard basis: 6-31G(d,p) (6D, 7F)
 There are    75 symmetry adapted cartesian basis functions of A   symmetry.
 There are    75 symmetry adapted basis functions of A   symmetry.
    75 basis functions,   126 primitive gaussians,    75 cartesian basis functions
    12 alpha electrons       12 beta electrons
       nuclear repulsion energy        63.5829318615 Hartrees.
 NAtoms=    9 NActive=    9 NUniq=    9 SFac= 1.00D+00 NAtFMM=   60 NAOKFM=F Big=F
 Integral buffers will be    131072 words long.
 Raffenetti 2 integral format.
 Two-electron integral symmetry is turned on.
 One-electron integrals computed using PRISM.
 NBasis=    75 RedAO= T EigKep=  2.85D-03  NBF=    75
 NBsUse=    75 1.00D-06 EigRej= -1.00D+00 NBFU=    75
 ExpMin= 1.61D-01 ExpMax= 3.05D+03 ExpMxC= 4.57D+02 IAcc=3 IRadAn=         5 AccDes= 0.00D+00
 Harris functional with IExCor=  402 and IRadAn=       5 diagonalized for initial guess.
 HarFok:  IExCor=  402 AccDes= 0.00D+00 IRadAn=         5 IDoV= 1 UseB2=F ITyADJ=14
 ICtDFT=  3500011 ScaDFX=  1.000000  1.000000  1.000000  1.000000
 FoFCou: FMM=F IPFlag=           0 FMFlag=      100000 FMFlg1=           0
         NFxFlg=           0 DoJE=T BraDBF=F KetDBF=T FulRan=T
         wScrn=  0.000000 ICntrl=       500 IOpCl=  0 I1Cent=   200000004 NGrid=           0
         NMat0=    1 NMatS0=      1 NMatT0=    0 NMatD0=    1 NMtDS0=    0 NMtDT0=    0
 Petite list used in FoFCou.
 Keep R1 ints in memory in canonical form, NReq=25608259.
 Requested convergence on RMS density matrix=1.00D-08 within 128 cycles.
 Requested convergence on MAX density matrix=1.00D-06.
 Requested convergence on             energy=1.00D-06.
 No special actions if energy rises.
 Integral accuracy reduced to 1.0D-05 until final iterations.
 Initial convergence to 1.0D-05 achieved.  Increase integral accuracy.
 SCF Done:  E(RB3LYP) =  -117.659221180     A.U. after   16 cycles
            NFock= 16  Conv=0.25D-08     -V/T= 2.0114
 DoSCS=F DFT=T ScalE2(SS,OS)=  1.000000  1.000000
 Range of M.O.s used for correlation:     1    75
 NBasis=    75 NAE=    12 NBE=    12 NFC=     0 NFV=     0
 NROrb=     75 NOA=    12 NOB=    12 NVA=    63 NVB=    63
 Symmetrizing basis deriv contribution to polar:
 IMax=3 JMax=2 DiffMx= 0.00D+00
 G2DrvN: will do    10 centers at a time, making    1 passes.
 Calling FoFCou, ICntrl=  3107 FMM=F I1Cent=   0 AccDes= 0.00D+00.
 End of G2Drv F.D. properties file   721 does not exist.
 End of G2Drv F.D. properties file   722 does not exist.
 End of G2Drv F.D. properties file   788 does not exist.
          IDoAtm=111111111
          Differentiating once with respect to electric field.
                with respect to dipole field.
          Differentiating once with respect to nuclear coordinates.
 Keep R1 ints in memory in canonical form, NReq=25532604.
          There are    30 degrees of freedom in the 1st order CPHF.  IDoFFX=6 NUNeed=     3.
     27 vectors produced by pass  0 Test12= 2.52D-15 3.33D-09 XBig12= 1.34D+02 8.91D+00.
 AX will form    27 AO Fock derivatives at one time.
     27 vectors produced by pass  1 Test12= 2.52D-15 3.33D-09 XBig12= 1.89D+01 1.12D+00.
     27 vectors produced by pass  2 Test12= 2.52D-15 3.33D-09 XBig12= 1.21D-01 9.40D-02.
     27 vectors produced by pass  3 Test12= 2.52D-15 3.33D-09 XBig12= 1.64D-04 3.04D-03.
     27 vectors produced by pass  4 Test12= 2.52D-15 3.33D-09 XBig12= 1.38D-07 1.00D-04.
      9 vectors produced by pass  5 Test12= 2.52D-15 3.33D-09 XBig12= 1.10D-10 1.87D-06.
      2 vectors produced by pass  6 Test12= 2.52D-15 3.33D-09 XBig12= 4.88D-14 4.40D-08.
 InvSVY:  IOpt=1 It=  1 EMax= 5.33D-15
 Solved reduced A of dimension   146 with    30 vectors.
 Isotropic polarizability for W=    0.000000       43.03 Bohr**3.
 End of Minotr F.D. properties file   721 does not exist.
 End of Minotr F.D. properties file   722 does not exist.
 End of Minotr F.D. properties file   788 does not exist.

 **********************************************************************

            Population analysis using the SCF Density.

 **********************************************************************

 Orbital symmetries:
       Occupied  (A) (A) (A) (A) (A) (A) (A) (A) (A) (A) (A) (A)
       Virtual   (A) (A) (A) (A) (A) (A) (A) (A) (A) (A) (A) (A)
                 (A) (A) (A) (A) (A) (A) (A) (A) (A) (A) (A) (A)
                 (A) (A) (A) (A) (A) (A) (A) (A) (A) (A) (A) (A)
                 (A) (A) (A) (A) (A) (A) (A) (A) (A) (A) (A) (A)
                 (A) (A) (A) (A) (A) (A) (A) (A) (A) (A) (A) (A)
                 (A) (A) (A)
 The electronic state is 1-A.
 Alpha  occ. eigenvalues --  -10.26301 -10.19922 -10.14225  -0.78326  -0.64504
 Alpha  occ. eigenvalues --   -0.57211  -0.50001  -0.39223  -0.36980  -0.36144
 Alpha  occ. eigenvalues --   -0.30168  -0.17429
 Alpha virt. eigenvalues --   -0.06375   0.00942   0.04896   0.12060   0.15252
 Alpha virt. eigenvalues --    0.17490   0.20030   0.22152   0.37864   0.45925
 Alpha virt. eigenvalues --    0.48277   0.57231   0.59002   0.59888   0.64421
 Alpha virt. eigenvalues --    0.65907   0.71069   0.77268   0.82642   0.87187
 Alpha virt. eigenvalues --    0.89610   0.90776   0.95596   0.97065   1.02554
 Alpha virt. eigenvalues --    1.07534   1.31569   1.35011   1.44076   1.45890
 Alpha virt. eigenvalues --    1.52521   1.57584   1.63283   1.72652   1.83502
 Alpha virt. eigenvalues --    1.96620   2.01103   2.05610   2.06332   2.08703
 Alpha virt. eigenvalues --    2.13944   2.15340   2.21853   2.24427   2.34508
 Alpha virt. eigenvalues --    2.36159   2.47106   2.50175   2.61396   2.63993
 Alpha virt. eigenvalues --    2.71449   2.85389   2.86266   2.88761   3.00042
 Alpha virt. eigenvalues --    3.21462   3.32603   3.46204   3.47714   3.74248
 Alpha virt. eigenvalues --    4.27793   4.45274   4.85024
          Condensed to atoms (all electrons):
               1          2          3          4          5          6
     1  C    5.435982   0.154410  -0.073700  -0.062387   0.376765   0.358213
     2  C    0.154410   4.770671   0.672959   0.366132  -0.004065  -0.008204
     3  C   -0.073700   0.672959   5.243311  -0.053175   0.001662   0.000902
     4  H   -0.062387   0.366132  -0.053175   0.588667   0.003301   0.001882
     5  H    0.376765  -0.004065   0.001662   0.003301   0.586137  -0.028672
     6  H    0.358213  -0.008204   0.000902   0.001882  -0.028672   0.613959
     7  H    0.363363  -0.009165   0.001839   0.001529  -0.028682  -0.038898
     8  H    0.046378   0.086053   0.131226   0.002763  -0.004719   0.001716
     9  H    0.002961  -0.043834   0.353437  -0.001422  -0.000031  -0.000067
               7          8          9
     1  C    0.363363   0.046378   0.002961
     2  C   -0.009165   0.086053  -0.043834
     3  C    0.001839   0.131226   0.353437
     4  H    0.001529   0.002763  -0.001422
     5  H   -0.028682  -0.004719  -0.000031
     6  H   -0.038898   0.001716  -0.000067
     7  H    0.607080  -0.000305  -0.000064
     8  H   -0.000305   0.453532  -0.000422
     9  H   -0.000064  -0.000422   0.561301
 Mulliken charges:
               1
     1  C   -0.601985
     2  C    0.015041
     3  C   -0.278461
     4  H    0.152711
     5  H    0.098304
     6  H    0.099168
     7  H    0.103302
     8  H    0.283778
     9  H    0.128142
 Sum of Mulliken charges =  -0.00000
 Mulliken charges with hydrogens summed into heavy atoms:
               1
     1  C   -0.301211
     2  C    0.167752
     3  C    0.133459
 APT charges:
               1
     1  C   -0.298129
     2  C    0.651107
     3  C   -0.499089
     4  H    0.001763
     5  H   -0.012502
     6  H   -0.090852
     7  H   -0.081681
     8  H    0.227174
     9  H    0.102209
 Sum of APT charges =  -0.00000
 APT charges with hydrogens summed into heavy atoms:
               1
     1  C   -0.483164
     2  C    0.652870
     3  C   -0.169706
 Electronic spatial extent (au):  <R**2>=            254.1234
 Charge=             -0.0000 electrons
 Dipole moment (field-independent basis, Debye):
    X=              1.2952    Y=              0.4562    Z=             -0.3602  Tot=              1.4196
 Quadrupole moment (field-independent basis, Debye-Ang):
   XX=            -20.6903   YY=            -18.2136   ZZ=            -22.0327
   XY=             -0.3090   XZ=             -0.2187   YZ=              0.0315
 Traceless Quadrupole moment (field-independent basis, Debye-Ang):
   XX=             -0.3781   YY=              2.0986   ZZ=             -1.7205
   XY=             -0.3090   XZ=             -0.2187   YZ=              0.0315
 Octapole moment (field-independent basis, Debye-Ang**2):
  XXX=             14.0714  YYY=              4.1244  ZZZ=             -0.3145  XYY=             -0.8522
  XXY=             -1.1963  XXZ=             -0.6231  XZZ=             -0.7532  YZZ=             -0.1280
  YYZ=             -0.7871  XYZ=              0.1943
 Hexadecapole moment (field-independent basis, Debye-Ang**3):
 XXXX=           -257.1550 YYYY=            -55.3603 ZZZZ=            -30.1819 XXXY=             -9.8185
 XXXZ=             -1.0669 YYYX=              1.2037 YYYZ=             -0.4547 ZZZX=             -0.4167
 ZZZY=             -0.1239 XXYY=            -53.3349 XXZZ=            -50.7236 YYZZ=            -15.1565
 XXYZ=              0.7669 YYXZ=             -0.2644 ZZXY=              0.8647
 N-N= 6.358293186152D+01 E-N=-3.987618752478D+02  KE= 1.163376589321D+02
  Exact polarizability:  71.113  -2.363  36.618   0.186   0.278  21.371
 Approx polarizability: 129.771 -10.143  62.705   1.372   1.678  28.232
 Calling FoFJK, ICntrl=    100127 FMM=F ISym2X=0 I1Cent= 0 IOpClX= 0 NMat=1 NMatS=1 NMatT=0.
 ***** Axes restored to original set *****
 -------------------------------------------------------------------
 Center     Atomic                   Forces (Hartrees/Bohr)
 Number     Number              X              Y              Z
 -------------------------------------------------------------------
      1        6           0.034545868   -0.003454029   -0.015740491
      2        6          -0.036443250    0.014617279   -0.032479707
      3        6           0.004873274    0.009541557   -0.058197108
      4        1          -0.004525738   -0.004197261    0.015646584
      5        1          -0.007384067    0.000325657    0.010246068
      6        1          -0.001600003    0.005930771    0.003922779
      7        1          -0.002258501   -0.005370308    0.001434700
      8        1           0.012518111   -0.013954900    0.066056937
      9        1           0.000274305   -0.003438766    0.009110238
 -------------------------------------------------------------------
 Cartesian Forces:  Max     0.066056937 RMS     0.021852212
 FormGI is forming the generalized inverse of G from B-inverse, IUseBI=4.

 GradGradGradGradGradGradGradGradGradGradGradGradGradGradGradGradGradGrad
 Berny optimization.
 Internal  Forces:  Max     0.042005735 RMS     0.013767705
 Search for a saddle point.
 Step number   1 out of a maximum of  100
 All quantities printed in internal units (Hartrees-Bohrs-Radians)
 Swapping is turned off.
 Second derivative matrix not updated -- analytic derivatives used.
 ITU=  0
     Eigenvalues ---   -0.50489  -0.00108   0.00109   0.00274   0.00488
     Eigenvalues ---    0.01038   0.01102   0.02128   0.03287   0.04151
     Eigenvalues ---    0.06121   0.07263   0.08912   0.09597   0.16571
     Eigenvalues ---    0.34386   0.34901   0.38085   0.38486   0.41549
     Eigenvalues ---    0.70981
 Eigenvectors required to have negative eigenvalues:
                          R8        A11       A12       A8        R5
   1                   -0.57493  -0.50668  -0.36510   0.32050   0.22290
                          A3        A5        R4        A6        A9
   1                    0.21468  -0.15205   0.12670  -0.12134  -0.10683
 RFO step:  Lambda0=3.881535168D-03 Lambda=-4.86196741D-02.
 Linear search not attempted -- option 19 set.
 Maximum step size (   0.300) exceeded in Quadratic search.
    -- Step size scaled by   0.334
 Iteration  1 RMS(Cart)=  0.05669441 RMS(Int)=  0.00305696
 Iteration  2 RMS(Cart)=  0.00364515 RMS(Int)=  0.00078925
 Iteration  3 RMS(Cart)=  0.00001190 RMS(Int)=  0.00078917
 Iteration  4 RMS(Cart)=  0.00000002 RMS(Int)=  0.00078917
 Variable       Old X    -DE/DX   Delta X   Delta X   Delta X     New X
                                 (Linear)    (Quad)   (Total)
    R1        2.02996   0.01244   0.00000   0.00880   0.00880   2.03876
    R2        2.06419   0.00320   0.00000   0.00338   0.00338   2.06757
    R3        2.06251   0.00330   0.00000   0.00006   0.00006   2.06257
    R4        3.49281  -0.02293   0.00000  -0.12782  -0.12782   3.36499
    R5        2.38693   0.03482   0.00000   0.00483   0.00446   2.39139
    R6        2.00213   0.01393   0.00000   0.01107   0.01107   2.01320
    R7        3.26891  -0.03431   0.00000  -0.19210  -0.19212   3.07680
    R8        3.05366  -0.04201   0.00000  -0.10703  -0.10670   2.94696
    R9        2.03518   0.00119   0.00000  -0.00001  -0.00001   2.03517
    A1        1.95186  -0.00188   0.00000  -0.00742  -0.00995   1.94191
    A2        1.92773  -0.00147   0.00000   0.00481   0.00604   1.93377
    A3        2.46446  -0.00484   0.00000  -0.05986  -0.06021   2.40425
    A4        1.87237   0.00494   0.00000   0.01071   0.01036   1.88273
    A5        1.57312   0.00231   0.00000  -0.00605  -0.00809   1.56504
    A6        1.59595   0.00423   0.00000   0.07351   0.07453   1.67048
    A7        2.74150   0.00082   0.00000  -0.00458  -0.00398   2.73751
    A8        2.33698   0.01283   0.00000   0.00182   0.00212   2.33910
    A9        2.55359  -0.00514   0.00000  -0.00036  -0.00046   2.55313
   A10        2.44484   0.01508   0.00000   0.06103   0.06118   2.50601
   A11        1.41921  -0.02160   0.00000   0.05147   0.05067   1.46988
   A12        2.18980  -0.00011   0.00000   0.09420   0.09500   2.28480
    D1        0.09672  -0.00012   0.00000   0.14085   0.13986   0.23659
    D2        0.13398   0.00185   0.00000   0.13459   0.13335   0.26733
    D3        2.30661  -0.00450   0.00000   0.06227   0.06300   2.36961
    D4        2.34387  -0.00253   0.00000   0.05601   0.05649   2.40035
    D5       -2.10405   0.00054   0.00000   0.07358   0.07421  -2.02984
    D6       -2.06679   0.00252   0.00000   0.06731   0.06770  -1.99909
    D7        0.45246  -0.00068   0.00000   0.00137   0.00081   0.45327
    D8        2.29679   0.00254   0.00000   0.04637   0.04584   2.34263
    D9       -0.37624  -0.00203   0.00000   0.02487   0.02485  -0.35139
   D10        2.97219   0.00050   0.00000   0.02085   0.02117   2.99336
   D11       -3.02503  -0.00196   0.00000  -0.01007  -0.01035  -3.03538
         Item               Value     Threshold  Converged?
 Maximum Force            0.042006     0.000450     NO 
 RMS     Force            0.013768     0.000300     NO 
 Maximum Displacement     0.150602     0.001800     NO 
 RMS     Displacement     0.058322     0.001200     NO 
 Predicted change in Energy=-1.462688D-02
 GradGradGradGradGradGradGradGradGradGradGradGradGradGradGradGradGradGrad

                          Input orientation:                          
 ---------------------------------------------------------------------
 Center     Atomic      Atomic             Coordinates (Angstroms)
 Number     Number       Type             X           Y           Z
 ---------------------------------------------------------------------
      1          6           0       -2.520254    0.050524    0.830927
      2          6           0       -0.737385   -0.192909    2.245038
      3          6           0        0.392983   -0.063588    1.691004
      4          1           0       -1.459671   -0.123217    3.025037
      5          1           0       -3.242891    0.019663    1.631423
      6          1           0       -2.628628    0.960637    0.233412
      7          1           0       -2.643836   -0.804672    0.164098
      8          1           0       -0.751537    0.158115    0.655220
      9          1           0        1.457955    0.008004    1.834394
 ---------------------------------------------------------------------
                    Distance matrix (angstroms):
                    1          2          3          4          5
     1  C    0.000000
     2  C    2.288578   0.000000
     3  C    3.039688   1.265469   0.000000
     4  H    2.443182   1.065341   2.283753   0.000000
     5  H    1.078866   2.588294   3.637315   2.267697   0.000000
     6  H    1.094110   2.992342   3.507670   3.214712   1.793652
     7  H    1.091464   2.887753   3.478924   3.170426   1.786460
     8  H    1.780676   1.628170   1.559464   2.489304   2.679363
     9  H    4.103035   2.242435   1.076964   3.153949   4.705240
                    6          7          8          9
     6  H    0.000000
     7  H    1.766735   0.000000
     8  H    2.084571   2.179209   0.000000
     9  H    4.491193   4.502779   2.508952   0.000000
 Stoichiometry    C3H6
 Framework group  C1[X(C3H6)]
 Deg. of freedom    21
 Full point group                 C1      NOp   1
 Largest Abelian subgroup         C1      NOp   1
 Largest concise Abelian subgroup C1      NOp   1
                         Standard orientation:                         
 ---------------------------------------------------------------------
 Center     Atomic      Atomic             Coordinates (Angstroms)
 Number     Number       Type             X           Y           Z
 ---------------------------------------------------------------------
      1          6           0       -1.567030   -0.138844   -0.002950
      2          6           0        0.606363    0.576737    0.040620
      3          6           0        1.465152   -0.352102    0.006743
      4          1           0        0.199555    1.542206   -0.152589
      5          1           0       -1.962522    0.860229   -0.099859
      6          1           0       -1.917727   -0.784763   -0.813429
      7          1           0       -1.877373   -0.588531    0.941910
      8          1           0        0.022322   -0.939291   -0.066592
      9          1           0        2.508832   -0.604594   -0.075912
 ---------------------------------------------------------------------
 Rotational constants (GHZ):          39.8051936           6.4320493           5.7412700
 Standard basis: 6-31G(d,p) (6D, 7F)
 There are    75 symmetry adapted cartesian basis functions of A   symmetry.
 There are    75 symmetry adapted basis functions of A   symmetry.
    75 basis functions,   126 primitive gaussians,    75 cartesian basis functions
    12 alpha electrons       12 beta electrons
       nuclear repulsion energy        64.1433923776 Hartrees.
 NAtoms=    9 NActive=    9 NUniq=    9 SFac= 1.00D+00 NAtFMM=   60 NAOKFM=F Big=F
 Integral buffers will be    131072 words long.
 Raffenetti 2 integral format.
 Two-electron integral symmetry is turned on.
 One-electron integrals computed using PRISM.
 NBasis=    75 RedAO= T EigKep=  2.84D-03  NBF=    75
 NBsUse=    75 1.00D-06 EigRej= -1.00D+00 NBFU=    75
 Initial guess from the checkpoint file:  "/scratch/brown/zhao922/pyGSM/new-benchmarking/R1-3/TS-folder/Gau-203073.chk"
 B after Tr=     0.000000   -0.000000    0.000000
         Rot=    0.999906    0.013539    0.000660   -0.001909 Ang=   1.57 deg.
 ExpMin= 1.61D-01 ExpMax= 3.05D+03 ExpMxC= 4.57D+02 IAcc=3 IRadAn=         5 AccDes= 0.00D+00
 Harris functional with IExCor=  402 and IRadAn=       5 diagonalized for initial guess.
 HarFok:  IExCor=  402 AccDes= 0.00D+00 IRadAn=         5 IDoV= 1 UseB2=F ITyADJ=14
 ICtDFT=  3500011 ScaDFX=  1.000000  1.000000  1.000000  1.000000
 FoFCou: FMM=F IPFlag=           0 FMFlag=      100000 FMFlg1=           0
         NFxFlg=           0 DoJE=T BraDBF=F KetDBF=T FulRan=T
         wScrn=  0.000000 ICntrl=       500 IOpCl=  0 I1Cent=   200000004 NGrid=           0
         NMat0=    1 NMatS0=      1 NMatT0=    0 NMatD0=    1 NMtDS0=    0 NMtDT0=    0
 Petite list used in FoFCou.
 Keep R1 ints in memory in canonical form, NReq=25608259.
 Requested convergence on RMS density matrix=1.00D-08 within 128 cycles.
 Requested convergence on MAX density matrix=1.00D-06.
 Requested convergence on             energy=1.00D-06.
 No special actions if energy rises.
 Integral accuracy reduced to 1.0D-05 until final iterations.
 Initial convergence to 1.0D-05 achieved.  Increase integral accuracy.
 SCF Done:  E(RB3LYP) =  -117.673690909     A.U. after   15 cycles
            NFock= 15  Conv=0.69D-09     -V/T= 2.0113
 DoSCS=F DFT=T ScalE2(SS,OS)=  1.000000  1.000000
 Range of M.O.s used for correlation:     1    75
 NBasis=    75 NAE=    12 NBE=    12 NFC=     0 NFV=     0
 NROrb=     75 NOA=    12 NOB=    12 NVA=    63 NVB=    63
 Symmetrizing basis deriv contribution to polar:
 IMax=3 JMax=2 DiffMx= 0.00D+00
 G2DrvN: will do    10 centers at a time, making    1 passes.
 Calling FoFCou, ICntrl=  3107 FMM=F I1Cent=   0 AccDes= 0.00D+00.
 End of G2Drv F.D. properties file   721 does not exist.
 End of G2Drv F.D. properties file   722 does not exist.
 End of G2Drv F.D. properties file   788 does not exist.
          IDoAtm=111111111
          Differentiating once with respect to electric field.
                with respect to dipole field.
          Differentiating once with respect to nuclear coordinates.
 Keep R1 ints in memory in canonical form, NReq=25532604.
          There are    30 degrees of freedom in the 1st order CPHF.  IDoFFX=6 NUNeed=     3.
     27 vectors produced by pass  0 Test12= 2.52D-15 3.33D-09 XBig12= 1.23D+02 8.35D+00.
 AX will form    27 AO Fock derivatives at one time.
     27 vectors produced by pass  1 Test12= 2.52D-15 3.33D-09 XBig12= 1.74D+01 1.06D+00.
     27 vectors produced by pass  2 Test12= 2.52D-15 3.33D-09 XBig12= 1.24D-01 9.54D-02.
     27 vectors produced by pass  3 Test12= 2.52D-15 3.33D-09 XBig12= 1.68D-04 2.87D-03.
     27 vectors produced by pass  4 Test12= 2.52D-15 3.33D-09 XBig12= 1.25D-07 8.92D-05.
      9 vectors produced by pass  5 Test12= 2.52D-15 3.33D-09 XBig12= 9.67D-11 1.93D-06.
      2 vectors produced by pass  6 Test12= 2.52D-15 3.33D-09 XBig12= 3.85D-14 3.24D-08.
 InvSVY:  IOpt=1 It=  1 EMax= 1.78D-15
 Solved reduced A of dimension   146 with    30 vectors.
 Isotropic polarizability for W=    0.000000       42.04 Bohr**3.
 End of Minotr F.D. properties file   721 does not exist.
 End of Minotr F.D. properties file   722 does not exist.
 End of Minotr F.D. properties file   788 does not exist.
 Calling FoFJK, ICntrl=    100127 FMM=F ISym2X=0 I1Cent= 0 IOpClX= 0 NMat=1 NMatS=1 NMatT=0.
 ***** Axes restored to original set *****
 -------------------------------------------------------------------
 Center     Atomic                   Forces (Hartrees/Bohr)
 Number     Number              X              Y              Z
 -------------------------------------------------------------------
      1        6           0.029665006   -0.003790531   -0.013448371
      2        6          -0.029433363    0.015077057   -0.030298652
      3        6           0.001651134    0.007963441   -0.046237737
      4        1          -0.002131077   -0.005003141    0.012169236
      5        1          -0.004905781    0.001243672    0.007506294
      6        1          -0.001259570    0.004658080    0.003069140
      7        1          -0.001901742   -0.004101258    0.001769444
      8        1           0.008281873   -0.013049430    0.057423607
      9        1           0.000033520   -0.002997889    0.008047037
 -------------------------------------------------------------------
 Cartesian Forces:  Max     0.057423607 RMS     0.018476154
 FormGI is forming the generalized inverse of G from B-inverse, IUseBI=4.

 GradGradGradGradGradGradGradGradGradGradGradGradGradGradGradGradGradGrad
 Berny optimization.
 Internal  Forces:  Max     0.034123343 RMS     0.011319915
 Search for a saddle point.
 Step number   2 out of a maximum of  100
 All quantities printed in internal units (Hartrees-Bohrs-Radians)
 Swapping is turned off.
 Second derivative matrix not updated -- analytic derivatives used.
 ITU=  0  0
     Eigenvalues ---   -0.37056  -0.00115   0.00075   0.00302   0.00533
     Eigenvalues ---    0.01081   0.01687   0.02467   0.03627   0.04152
     Eigenvalues ---    0.06267   0.07571   0.08961   0.10109   0.18461
     Eigenvalues ---    0.34121   0.34891   0.37463   0.38119   0.39980
     Eigenvalues ---    0.70062
 Eigenvectors required to have negative eigenvalues:
                          R8        A11       A12       A8        A3
   1                    0.59974   0.49290   0.34017  -0.33800  -0.20894
                          R5        A5        R4        A9        A6
   1                   -0.19718   0.15591  -0.13642   0.11999   0.10598
 RFO step:  Lambda0=2.959151944D-03 Lambda=-3.94749085D-02.
 Linear search not attempted -- option 19 set.
 Maximum step size (   0.300) exceeded in Quadratic search.
    -- Step size scaled by   0.366
 Iteration  1 RMS(Cart)=  0.06667870 RMS(Int)=  0.00350899
 Iteration  2 RMS(Cart)=  0.00369802 RMS(Int)=  0.00074769
 Iteration  3 RMS(Cart)=  0.00001069 RMS(Int)=  0.00074760
 Iteration  4 RMS(Cart)=  0.00000002 RMS(Int)=  0.00074760
 Variable       Old X    -DE/DX   Delta X   Delta X   Delta X     New X
                                 (Linear)    (Quad)   (Total)
    R1        2.03876   0.00882   0.00000   0.00678   0.00678   2.04554
    R2        2.06757   0.00232   0.00000   0.00331   0.00331   2.07088
    R3        2.06257   0.00235   0.00000  -0.00024  -0.00024   2.06233
    R4        3.36499  -0.02144   0.00000  -0.14998  -0.14998   3.21501
    R5        2.39139   0.02556   0.00000   0.00496   0.00471   2.39610
    R6        2.01320   0.01003   0.00000   0.01040   0.01040   2.02360
    R7        3.07680  -0.03112   0.00000  -0.18510  -0.18526   2.89154
    R8        2.94696  -0.03412   0.00000  -0.08366  -0.08329   2.86367
    R9        2.03517   0.00091   0.00000   0.00011   0.00011   2.03528
    A1        1.94191  -0.00169   0.00000  -0.00860  -0.01094   1.93098
    A2        1.93377  -0.00098   0.00000   0.00649   0.00726   1.94104
    A3        2.40425  -0.00428   0.00000  -0.05404  -0.05433   2.34992
    A4        1.88273   0.00399   0.00000   0.01062   0.01063   1.89335
    A5        1.56504   0.00173   0.00000  -0.01696  -0.01870   1.54634
    A6        1.67048   0.00359   0.00000   0.07071   0.07135   1.74184
    A7        2.73751   0.00002   0.00000  -0.01554  -0.01481   2.72270
    A8        2.33910   0.01077   0.00000   0.00906   0.00906   2.34816
    A9        2.55313  -0.00438   0.00000  -0.00641  -0.00687   2.54626
   A10        2.50601   0.01363   0.00000   0.07290   0.07285   2.57886
   A11        1.46988  -0.01563   0.00000   0.05047   0.04988   1.51976
   A12        2.28480   0.00290   0.00000   0.09306   0.09365   2.37844
    D1        0.23659  -0.00003   0.00000   0.15361   0.15290   0.38948
    D2        0.26733   0.00147   0.00000   0.13789   0.13661   0.40394
    D3        2.36961  -0.00349   0.00000   0.08039   0.08145   2.45107
    D4        2.40035  -0.00199   0.00000   0.06467   0.06517   2.46553
    D5       -2.02984   0.00079   0.00000   0.09117   0.09167  -1.93817
    D6       -1.99909   0.00230   0.00000   0.07546   0.07538  -1.92371
    D7        0.45327  -0.00110   0.00000  -0.00710  -0.00827   0.44500
    D8        2.34263   0.00237   0.00000   0.06381   0.06288   2.40551
    D9       -0.35139  -0.00172   0.00000   0.03170   0.03158  -0.31981
   D10        2.99336   0.00043   0.00000   0.02957   0.03015   3.02350
   D11       -3.03538  -0.00168   0.00000  -0.00664  -0.00720  -3.04258
         Item               Value     Threshold  Converged?
 Maximum Force            0.034123     0.000450     NO 
 RMS     Force            0.011320     0.000300     NO 
 Maximum Displacement     0.168618     0.001800     NO 
 RMS     Displacement     0.068130     0.001200     NO 
 Predicted change in Energy=-1.269517D-02
 GradGradGradGradGradGradGradGradGradGradGradGradGradGradGradGradGradGrad

                          Input orientation:                          
 ---------------------------------------------------------------------
 Center     Atomic      Atomic             Coordinates (Angstroms)
 Number     Number       Type             X           Y           Z
 ---------------------------------------------------------------------
      1          6           0       -2.491241    0.051277    0.832315
      2          6           0       -0.756597   -0.214719    2.207252
      3          6           0        0.374985   -0.028777    1.666256
      4          1           0       -1.472331   -0.212446    3.003760
      5          1           0       -3.208406    0.104527    1.641357
      6          1           0       -2.566051    0.936711    0.190966
      7          1           0       -2.654291   -0.835758    0.217825
      8          1           0       -0.797325    0.169369    0.726666
      9          1           0        1.437991    0.042373    1.824157
 ---------------------------------------------------------------------
                    Distance matrix (angstroms):
                    1          2          3          4          5
     1  C    0.000000
     2  C    2.229393   0.000000
     3  C    2.986154   1.267963   0.000000
     4  H    2.413068   1.070843   2.288062   0.000000
     5  H    1.082456   2.536438   3.585956   2.229477   0.000000
     6  H    1.095864   2.943691   3.429044   3.229333   1.791308
     7  H    1.091336   2.818643   3.453358   3.089818   1.793773
     8  H    1.701311   1.530136   1.515389   2.405529   2.579569
     9  H    4.052493   2.242560   1.077022   3.150614   4.650407
                    6          7          8          9
     6  H    0.000000
     7  H    1.774867   0.000000
     8  H    2.001045   2.171985   0.000000
     9  H    4.415825   4.483100   2.493442   0.000000
 Stoichiometry    C3H6
 Framework group  C1[X(C3H6)]
 Deg. of freedom    21
 Full point group                 C1      NOp   1
 Largest Abelian subgroup         C1      NOp   1
 Largest concise Abelian subgroup C1      NOp   1
                         Standard orientation:                         
 ---------------------------------------------------------------------
 Center     Atomic      Atomic             Coordinates (Angstroms)
 Number     Number       Type             X           Y           Z
 ---------------------------------------------------------------------
      1          6           0       -1.532250   -0.147092   -0.002365
      2          6           0        0.578139    0.570135    0.042739
      3          6           0        1.446825   -0.352570    0.001148
      4          1           0        0.180071    1.547793   -0.137351
      5          1           0       -1.929350    0.832674   -0.234917
      6          1           0       -1.857389   -0.882346   -0.747082
      7          1           0       -1.861644   -0.483156    0.982305
      8          1           0        0.016293   -0.850390   -0.045319
      9          1           0        2.495736   -0.587408   -0.066773
 ---------------------------------------------------------------------
 Rotational constants (GHZ):          40.4534006           6.6702188           5.9462656
 Standard basis: 6-31G(d,p) (6D, 7F)
 There are    75 symmetry adapted cartesian basis functions of A   symmetry.
 There are    75 symmetry adapted basis functions of A   symmetry.
    75 basis functions,   126 primitive gaussians,    75 cartesian basis functions
    12 alpha electrons       12 beta electrons
       nuclear repulsion energy        64.8548843114 Hartrees.
 NAtoms=    9 NActive=    9 NUniq=    9 SFac= 1.00D+00 NAtFMM=   60 NAOKFM=F Big=F
 Integral buffers will be    131072 words long.
 Raffenetti 2 integral format.
 Two-electron integral symmetry is turned on.
 One-electron integrals computed using PRISM.
 NBasis=    75 RedAO= T EigKep=  2.88D-03  NBF=    75
 NBsUse=    75 1.00D-06 EigRej= -1.00D+00 NBFU=    75
 Initial guess from the checkpoint file:  "/scratch/brown/zhao922/pyGSM/new-benchmarking/R1-3/TS-folder/Gau-203073.chk"
 B after Tr=    -0.000000    0.000000   -0.000000
         Rot=    0.999836    0.017942    0.000865   -0.002493 Ang=   2.08 deg.
 ExpMin= 1.61D-01 ExpMax= 3.05D+03 ExpMxC= 4.57D+02 IAcc=3 IRadAn=         5 AccDes= 0.00D+00
 Harris functional with IExCor=  402 and IRadAn=       5 diagonalized for initial guess.
 HarFok:  IExCor=  402 AccDes= 0.00D+00 IRadAn=         5 IDoV= 1 UseB2=F ITyADJ=14
 ICtDFT=  3500011 ScaDFX=  1.000000  1.000000  1.000000  1.000000
 FoFCou: FMM=F IPFlag=           0 FMFlag=      100000 FMFlg1=           0
         NFxFlg=           0 DoJE=T BraDBF=F KetDBF=T FulRan=T
         wScrn=  0.000000 ICntrl=       500 IOpCl=  0 I1Cent=   200000004 NGrid=           0
         NMat0=    1 NMatS0=      1 NMatT0=    0 NMatD0=    1 NMtDS0=    0 NMtDT0=    0
 Petite list used in FoFCou.
 Keep R1 ints in memory in canonical form, NReq=25608259.
 Requested convergence on RMS density matrix=1.00D-08 within 128 cycles.
 Requested convergence on MAX density matrix=1.00D-06.
 Requested convergence on             energy=1.00D-06.
 No special actions if energy rises.
 Integral accuracy reduced to 1.0D-05 until final iterations.
 Initial convergence to 1.0D-05 achieved.  Increase integral accuracy.
 SCF Done:  E(RB3LYP) =  -117.686233539     A.U. after   13 cycles
            NFock= 13  Conv=0.99D-08     -V/T= 2.0110
 DoSCS=F DFT=T ScalE2(SS,OS)=  1.000000  1.000000
 Range of M.O.s used for correlation:     1    75
 NBasis=    75 NAE=    12 NBE=    12 NFC=     0 NFV=     0
 NROrb=     75 NOA=    12 NOB=    12 NVA=    63 NVB=    63
 Symmetrizing basis deriv contribution to polar:
 IMax=3 JMax=2 DiffMx= 0.00D+00
 G2DrvN: will do    10 centers at a time, making    1 passes.
 Calling FoFCou, ICntrl=  3107 FMM=F I1Cent=   0 AccDes= 0.00D+00.
 End of G2Drv F.D. properties file   721 does not exist.
 End of G2Drv F.D. properties file   722 does not exist.
 End of G2Drv F.D. properties file   788 does not exist.
          IDoAtm=111111111
          Differentiating once with respect to electric field.
                with respect to dipole field.
          Differentiating once with respect to nuclear coordinates.
 Keep R1 ints in memory in canonical form, NReq=25532604.
          There are    30 degrees of freedom in the 1st order CPHF.  IDoFFX=6 NUNeed=     3.
     27 vectors produced by pass  0 Test12= 2.52D-15 3.33D-09 XBig12= 1.12D+02 7.48D+00.
 AX will form    27 AO Fock derivatives at one time.
     27 vectors produced by pass  1 Test12= 2.52D-15 3.33D-09 XBig12= 1.61D+01 9.92D-01.
     27 vectors produced by pass  2 Test12= 2.52D-15 3.33D-09 XBig12= 1.32D-01 9.99D-02.
     27 vectors produced by pass  3 Test12= 2.52D-15 3.33D-09 XBig12= 1.78D-04 2.62D-03.
     27 vectors produced by pass  4 Test12= 2.52D-15 3.33D-09 XBig12= 1.27D-07 8.05D-05.
      9 vectors produced by pass  5 Test12= 2.52D-15 3.33D-09 XBig12= 7.90D-11 2.05D-06.
      2 vectors produced by pass  6 Test12= 2.52D-15 3.33D-09 XBig12= 2.91D-14 3.22D-08.
 InvSVY:  IOpt=1 It=  1 EMax= 7.99D-15
 Solved reduced A of dimension   146 with    30 vectors.
 Isotropic polarizability for W=    0.000000       41.02 Bohr**3.
 End of Minotr F.D. properties file   721 does not exist.
 End of Minotr F.D. properties file   722 does not exist.
 End of Minotr F.D. properties file   788 does not exist.
 Calling FoFJK, ICntrl=    100127 FMM=F ISym2X=0 I1Cent= 0 IOpClX= 0 NMat=1 NMatS=1 NMatT=0.
 ***** Axes restored to original set *****
 -------------------------------------------------------------------
 Center     Atomic                   Forces (Hartrees/Bohr)
 Number     Number              X              Y              Z
 -------------------------------------------------------------------
      1        6           0.024206140   -0.003773342   -0.010794835
      2        6          -0.023417359    0.015202104   -0.025766278
      3        6           0.000455551    0.005608791   -0.035160435
      4        1          -0.000187009   -0.005627964    0.009221112
      5        1          -0.003084338    0.001714899    0.005086562
      6        1          -0.000798604    0.003455912    0.002140952
      7        1          -0.001469537   -0.002989840    0.001912865
      8        1           0.004519189   -0.011140242    0.046290467
      9        1          -0.000224032   -0.002450319    0.007069592
 -------------------------------------------------------------------
 Cartesian Forces:  Max     0.046290467 RMS     0.014855302
 FormGI is forming the generalized inverse of G from B-inverse, IUseBI=4.

 GradGradGradGradGradGradGradGradGradGradGradGradGradGradGradGradGradGrad
 Berny optimization.
 Internal  Forces:  Max     0.025969903 RMS     0.008871960
 Search for a saddle point.
 Step number   3 out of a maximum of  100
 All quantities printed in internal units (Hartrees-Bohrs-Radians)
 Swapping is turned off.
 Second derivative matrix not updated -- analytic derivatives used.
 ITU=  0  0  0
     Eigenvalues ---   -0.28706  -0.00127   0.00015   0.00317   0.00562
     Eigenvalues ---    0.01099   0.02338   0.02911   0.04036   0.04534
     Eigenvalues ---    0.06414   0.07954   0.09061   0.10765   0.20492
     Eigenvalues ---    0.33800   0.34955   0.36704   0.38133   0.38496
     Eigenvalues ---    0.68965
 Eigenvectors required to have negative eigenvalues:
                          R8        A11       A8        A12       A3
   1                    0.61144   0.48716  -0.35212   0.32071  -0.20057
                          R5        A5        R4        A9        A6
   1                   -0.17686   0.16333  -0.14504   0.12600   0.08766
 RFO step:  Lambda0=1.864291102D-03 Lambda=-2.87345076D-02.
 Linear search not attempted -- option 19 set.
 Maximum step size (   0.300) exceeded in Quadratic search.
    -- Step size scaled by   0.412
 Iteration  1 RMS(Cart)=  0.08034328 RMS(Int)=  0.00425992
 Iteration  2 RMS(Cart)=  0.00409144 RMS(Int)=  0.00109841
 Iteration  3 RMS(Cart)=  0.00001284 RMS(Int)=  0.00109829
 Iteration  4 RMS(Cart)=  0.00000003 RMS(Int)=  0.00109829
 Variable       Old X    -DE/DX   Delta X   Delta X   Delta X     New X
                                 (Linear)    (Quad)   (Total)
    R1        2.04554   0.00593   0.00000   0.00480   0.00480   2.05034
    R2        2.07088   0.00159   0.00000   0.00308   0.00308   2.07396
    R3        2.06233   0.00157   0.00000  -0.00073  -0.00073   2.06160
    R4        3.21501  -0.01876   0.00000  -0.16766  -0.16766   3.04735
    R5        2.39610   0.01793   0.00000   0.00658   0.00658   2.40269
    R6        2.02360   0.00697   0.00000   0.01032   0.01032   2.03392
    R7        2.89154  -0.02597   0.00000  -0.16919  -0.16952   2.72202
    R8        2.86367  -0.02565   0.00000  -0.06162  -0.06131   2.80236
    R9        2.03528   0.00065   0.00000   0.00086   0.00086   2.03614
    A1        1.93098  -0.00134   0.00000  -0.00784  -0.01023   1.92075
    A2        1.94104  -0.00060   0.00000   0.00821   0.00867   1.94970
    A3        2.34992  -0.00342   0.00000  -0.05178  -0.05205   2.29787
    A4        1.89335   0.00310   0.00000   0.01097   0.01132   1.90468
    A5        1.54634   0.00105   0.00000  -0.02916  -0.03072   1.51561
    A6        1.74184   0.00278   0.00000   0.07041   0.07080   1.81264
    A7        2.72270  -0.00073   0.00000  -0.02380  -0.02281   2.69989
    A8        2.34816   0.00881   0.00000   0.01994   0.01895   2.36712
    A9        2.54626  -0.00392   0.00000  -0.02338  -0.02441   2.52185
   A10        2.57886   0.01190   0.00000   0.09028   0.08986   2.66872
   A11        1.51976  -0.01043   0.00000   0.04758   0.04732   1.56708
   A12        2.37844   0.00463   0.00000   0.08768   0.08793   2.46638
    D1        0.38948   0.00014   0.00000   0.17049   0.17014   0.55962
    D2        0.40394   0.00112   0.00000   0.13625   0.13463   0.53857
    D3        2.45107  -0.00240   0.00000   0.10064   0.10231   2.55337
    D4        2.46553  -0.00142   0.00000   0.06640   0.06680   2.53232
    D5       -1.93817   0.00102   0.00000   0.10896   0.10956  -1.82861
    D6       -1.92371   0.00199   0.00000   0.07473   0.07404  -1.84967
    D7        0.44500  -0.00165   0.00000  -0.01718  -0.02050   0.42450
    D8        2.40551   0.00224   0.00000   0.09271   0.09044   2.49595
    D9       -0.31981  -0.00148   0.00000   0.05154   0.05110  -0.26871
   D10        3.02350   0.00039   0.00000   0.04732   0.04873   3.07224
   D11       -3.04258  -0.00142   0.00000  -0.00155  -0.00277  -3.04535
         Item               Value     Threshold  Converged?
 Maximum Force            0.025970     0.000450     NO 
 RMS     Force            0.008872     0.000300     NO 
 Maximum Displacement     0.216830     0.001800     NO 
 RMS     Displacement     0.081433     0.001200     NO 
 Predicted change in Energy=-1.027852D-02
 GradGradGradGradGradGradGradGradGradGradGradGradGradGradGradGradGradGrad

                          Input orientation:                          
 ---------------------------------------------------------------------
 Center     Atomic      Atomic             Coordinates (Angstroms)
 Number     Number       Type             X           Y           Z
 ---------------------------------------------------------------------
      1          6           0       -2.459473    0.053341    0.839734
      2          6           0       -0.779284   -0.239664    2.162286
      3          6           0        0.350189    0.017413    1.638093
      4          1           0       -1.476181   -0.327187    2.977824
      5          1           0       -3.168137    0.209358    1.646371
      6          1           0       -2.487866    0.902069    0.144501
      7          1           0       -2.668986   -0.865769    0.290632
      8          1           0       -0.852603    0.177782    0.785623
      9          1           0        1.409078    0.085215    1.825490
 ---------------------------------------------------------------------
                    Distance matrix (angstroms):
                    1          2          3          4          5
     1  C    0.000000
     2  C    2.158247   0.000000
     3  C    2.921107   1.271446   0.000000
     4  H    2.383924   1.076303   2.291125   0.000000
     5  H    1.084993   2.484835   3.523568   2.218865   0.000000
     6  H    1.097495   2.879976   3.326859   3.249969   1.788361
     7  H    1.090951   2.732410   3.422145   2.988956   1.800855
     8  H    1.612589   1.440429   1.482946   2.334435   2.470543
     9  H    3.992295   2.237836   1.077479   3.134114   4.582401
                    6          7          8          9
     6  H    0.000000
     7  H    1.783091   0.000000
     8  H    1.899925   2.152501   0.000000
     9  H    4.321938   4.459907   2.491002   0.000000
 Stoichiometry    C3H6
 Framework group  C1[X(C3H6)]
 Deg. of freedom    21
 Full point group                 C1      NOp   1
 Largest Abelian subgroup         C1      NOp   1
 Largest concise Abelian subgroup C1      NOp   1
                         Standard orientation:                         
 ---------------------------------------------------------------------
 Center     Atomic      Atomic             Coordinates (Angstroms)
 Number     Number       Type             X           Y           Z
 ---------------------------------------------------------------------
      1          6           0       -1.490643   -0.153165   -0.001978
      2          6           0        0.544819    0.562956    0.043756
      3          6           0        1.423500   -0.354729   -0.004722
      4          1           0        0.166014    1.556996   -0.120011
      5          1           0       -1.891106    0.773651   -0.399286
      6          1           0       -1.777709   -0.993929   -0.646342
      7          1           0       -1.843945   -0.343354    1.012506
      8          1           0       -0.000356   -0.769077   -0.013750
      9          1           0        2.481051   -0.554662   -0.055448
 ---------------------------------------------------------------------
 Rotational constants (GHZ):          41.0434097           6.9755452           6.2040540
 Standard basis: 6-31G(d,p) (6D, 7F)
 There are    75 symmetry adapted cartesian basis functions of A   symmetry.
 There are    75 symmetry adapted basis functions of A   symmetry.
    75 basis functions,   126 primitive gaussians,    75 cartesian basis functions
    12 alpha electrons       12 beta electrons
       nuclear repulsion energy        65.6975792018 Hartrees.
 NAtoms=    9 NActive=    9 NUniq=    9 SFac= 1.00D+00 NAtFMM=   60 NAOKFM=F Big=F
 Integral buffers will be    131072 words long.
 Raffenetti 2 integral format.
 Two-electron integral symmetry is turned on.
 One-electron integrals computed using PRISM.
 NBasis=    75 RedAO= T EigKep=  3.00D-03  NBF=    75
 NBsUse=    75 1.00D-06 EigRej= -1.00D+00 NBFU=    75
 Initial guess from the checkpoint file:  "/scratch/brown/zhao922/pyGSM/new-benchmarking/R1-3/TS-folder/Gau-203073.chk"
 B after Tr=     0.000000    0.000000   -0.000000
         Rot=    0.999706    0.024058    0.001210   -0.002908 Ang=   2.78 deg.
 ExpMin= 1.61D-01 ExpMax= 3.05D+03 ExpMxC= 4.57D+02 IAcc=3 IRadAn=         5 AccDes= 0.00D+00
 Harris functional with IExCor=  402 and IRadAn=       5 diagonalized for initial guess.
 HarFok:  IExCor=  402 AccDes= 0.00D+00 IRadAn=         5 IDoV= 1 UseB2=F ITyADJ=14
 ICtDFT=  3500011 ScaDFX=  1.000000  1.000000  1.000000  1.000000
 FoFCou: FMM=F IPFlag=           0 FMFlag=      100000 FMFlg1=           0
         NFxFlg=           0 DoJE=T BraDBF=F KetDBF=T FulRan=T
         wScrn=  0.000000 ICntrl=       500 IOpCl=  0 I1Cent=   200000004 NGrid=           0
         NMat0=    1 NMatS0=      1 NMatT0=    0 NMatD0=    1 NMtDS0=    0 NMtDT0=    0
 Petite list used in FoFCou.
 Keep R1 ints in memory in canonical form, NReq=25608259.
 Requested convergence on RMS density matrix=1.00D-08 within 128 cycles.
 Requested convergence on MAX density matrix=1.00D-06.
 Requested convergence on             energy=1.00D-06.
 No special actions if energy rises.
 Integral accuracy reduced to 1.0D-05 until final iterations.
 Initial convergence to 1.0D-05 achieved.  Increase integral accuracy.
 SCF Done:  E(RB3LYP) =  -117.696360510     A.U. after   13 cycles
            NFock= 13  Conv=0.33D-08     -V/T= 2.0107
 DoSCS=F DFT=T ScalE2(SS,OS)=  1.000000  1.000000
 Range of M.O.s used for correlation:     1    75
 NBasis=    75 NAE=    12 NBE=    12 NFC=     0 NFV=     0
 NROrb=     75 NOA=    12 NOB=    12 NVA=    63 NVB=    63
 Symmetrizing basis deriv contribution to polar:
 IMax=3 JMax=2 DiffMx= 0.00D+00
 G2DrvN: will do    10 centers at a time, making    1 passes.
 Calling FoFCou, ICntrl=  3107 FMM=F I1Cent=   0 AccDes= 0.00D+00.
 End of G2Drv F.D. properties file   721 does not exist.
 End of G2Drv F.D. properties file   722 does not exist.
 End of G2Drv F.D. properties file   788 does not exist.
          IDoAtm=111111111
          Differentiating once with respect to electric field.
                with respect to dipole field.
          Differentiating once with respect to nuclear coordinates.
 Keep R1 ints in memory in canonical form, NReq=25532604.
          There are    30 degrees of freedom in the 1st order CPHF.  IDoFFX=6 NUNeed=     3.
     27 vectors produced by pass  0 Test12= 2.52D-15 3.33D-09 XBig12= 1.00D+02 6.42D+00.
 AX will form    27 AO Fock derivatives at one time.
     27 vectors produced by pass  1 Test12= 2.52D-15 3.33D-09 XBig12= 1.46D+01 9.15D-01.
     27 vectors produced by pass  2 Test12= 2.52D-15 3.33D-09 XBig12= 1.41D-01 9.27D-02.
     27 vectors produced by pass  3 Test12= 2.52D-15 3.33D-09 XBig12= 1.86D-04 2.81D-03.
     27 vectors produced by pass  4 Test12= 2.52D-15 3.33D-09 XBig12= 1.40D-07 6.91D-05.
      9 vectors produced by pass  5 Test12= 2.52D-15 3.33D-09 XBig12= 5.73D-11 1.78D-06.
      2 vectors produced by pass  6 Test12= 2.52D-15 3.33D-09 XBig12= 2.05D-14 2.88D-08.
 InvSVY:  IOpt=1 It=  1 EMax= 1.78D-15
 Solved reduced A of dimension   146 with    30 vectors.
 Isotropic polarizability for W=    0.000000       40.01 Bohr**3.
 End of Minotr F.D. properties file   721 does not exist.
 End of Minotr F.D. properties file   722 does not exist.
 End of Minotr F.D. properties file   788 does not exist.
 Calling FoFJK, ICntrl=    100127 FMM=F ISym2X=0 I1Cent= 0 IOpClX= 0 NMat=1 NMatS=1 NMatT=0.
 ***** Axes restored to original set *****
 -------------------------------------------------------------------
 Center     Atomic                   Forces (Hartrees/Bohr)
 Number     Number              X              Y              Z
 -------------------------------------------------------------------
      1        6           0.017940558   -0.003616561   -0.007696521
      2        6          -0.018007982    0.014237976   -0.018180056
      3        6           0.000699213    0.002919057   -0.025858938
      4        1           0.001130099   -0.005979968    0.006391016
      5        1          -0.001786949    0.001837997    0.003045931
      6        1          -0.000268945    0.002270894    0.001212908
      7        1          -0.001044564   -0.002006074    0.001840996
      8        1           0.001858880   -0.007772585    0.032923325
      9        1          -0.000520311   -0.001890737    0.006321340
 -------------------------------------------------------------------
 Cartesian Forces:  Max     0.032923325 RMS     0.010937450
 FormGI is forming the generalized inverse of G from B-inverse, IUseBI=4.

 GradGradGradGradGradGradGradGradGradGradGradGradGradGradGradGradGradGrad
 Berny optimization.
 Internal  Forces:  Max     0.018782734 RMS     0.006386776
 Search for a saddle point.
 Step number   4 out of a maximum of  100
 All quantities printed in internal units (Hartrees-Bohrs-Radians)
 Swapping is turned off.
 Second derivative matrix not updated -- analytic derivatives used.
 ITU=  0  0  0  0
     Eigenvalues ---   -0.23072  -0.00110  -0.00024   0.00322   0.00632
     Eigenvalues ---    0.01087   0.02769   0.03800   0.04639   0.05266
     Eigenvalues ---    0.06609   0.08422   0.09260   0.11598   0.22372
     Eigenvalues ---    0.33488   0.35079   0.36201   0.37044   0.38039
     Eigenvalues ---    0.67347
 Eigenvectors required to have negative eigenvalues:
                          R8        A11       A8        A12       A3
   1                   -0.61260  -0.48948   0.36384  -0.30764   0.18732
                          A5        R5        R4        A9        D7
   1                   -0.17330   0.16189   0.15178  -0.12345  -0.06648
 RFO step:  Lambda0=9.845210694D-04 Lambda=-1.76787039D-02.
 Linear search not attempted -- option 19 set.
 Maximum step size (   0.300) exceeded in Quadratic search.
    -- Step size scaled by   0.436
 Iteration  1 RMS(Cart)=  0.07995734 RMS(Int)=  0.00819727
 Iteration  2 RMS(Cart)=  0.00501045 RMS(Int)=  0.00095806
 Iteration  3 RMS(Cart)=  0.00008084 RMS(Int)=  0.00095482
 Iteration  4 RMS(Cart)=  0.00000014 RMS(Int)=  0.00095482
 Variable       Old X    -DE/DX   Delta X   Delta X   Delta X     New X
                                 (Linear)    (Quad)   (Total)
    R1        2.05034   0.00370   0.00000   0.00245   0.00245   2.05279
    R2        2.07396   0.00100   0.00000   0.00298   0.00298   2.07695
    R3        2.06160   0.00096   0.00000  -0.00158  -0.00158   2.06002
    R4        3.04735  -0.01472   0.00000  -0.18832  -0.18832   2.85904
    R5        2.40269   0.01191   0.00000   0.01244   0.01233   2.41501
    R6        2.03392   0.00460   0.00000   0.00955   0.00955   2.04347
    R7        2.72202  -0.01878   0.00000  -0.10775  -0.10780   2.61422
    R8        2.80236  -0.01727   0.00000  -0.02001  -0.01986   2.78250
    R9        2.03614   0.00047   0.00000   0.00454   0.00454   2.04068
    A1        1.92075  -0.00086   0.00000  -0.00742  -0.00969   1.91106
    A2        1.94970  -0.00034   0.00000   0.00964   0.00970   1.95941
    A3        2.29787  -0.00241   0.00000  -0.04602  -0.04631   2.25156
    A4        1.90468   0.00224   0.00000   0.00880   0.00952   1.91420
    A5        1.51561   0.00032   0.00000  -0.04189  -0.04313   1.47249
    A6        1.81264   0.00196   0.00000   0.06855   0.06861   1.88124
    A7        2.69989  -0.00108   0.00000  -0.02633  -0.02705   2.67284
    A8        2.36712   0.00683   0.00000   0.01652   0.01784   2.38495
    A9        2.52185  -0.00395   0.00000  -0.09063  -0.09038   2.43147
   A10        2.66872   0.00989   0.00000   0.13596   0.13566   2.80437
   A11        1.56708  -0.00647   0.00000   0.03196   0.03190   1.59898
   A12        2.46638   0.00461   0.00000   0.05828   0.05837   2.52474
    D1        0.55962   0.00042   0.00000   0.18880   0.18754   0.74716
    D2        0.53857   0.00086   0.00000   0.18466   0.18414   0.72271
    D3        2.55337  -0.00128   0.00000   0.12309   0.12393   2.67731
    D4        2.53232  -0.00085   0.00000   0.11896   0.12054   2.65286
    D5       -1.82861   0.00115   0.00000   0.12383   0.12314  -1.70548
    D6       -1.84967   0.00158   0.00000   0.11969   0.11974  -1.72992
    D7        0.42450  -0.00221   0.00000  -0.05124  -0.04831   0.37619
    D8        2.49595   0.00205   0.00000   0.06015   0.06167   2.55762
    D9       -0.26871  -0.00114   0.00000   0.01135   0.01250  -0.25621
   D10        3.07224   0.00034   0.00000  -0.02286  -0.02412   3.04812
   D11       -3.04535  -0.00113   0.00000   0.02758   0.02781  -3.01754
         Item               Value     Threshold  Converged?
 Maximum Force            0.018783     0.000450     NO 
 RMS     Force            0.006387     0.000300     NO 
 Maximum Displacement     0.202207     0.001800     NO 
 RMS     Displacement     0.082283     0.001200     NO 
 Predicted change in Energy=-7.133459D-03
 GradGradGradGradGradGradGradGradGradGradGradGradGradGradGradGradGradGrad

                          Input orientation:                          
 ---------------------------------------------------------------------
 Center     Atomic      Atomic             Coordinates (Angstroms)
 Number     Number       Type             X           Y           Z
 ---------------------------------------------------------------------
      1          6           0       -2.425217    0.054528    0.852927
      2          6           0       -0.800905   -0.261600    2.110848
      3          6           0        0.321766    0.059376    1.591438
      4          1           0       -1.461919   -0.434190    2.949063
      5          1           0       -3.119031    0.307287    1.649649
      6          1           0       -2.418115    0.858767    0.103855
      7          1           0       -2.674515   -0.891935    0.372920
      8          1           0       -0.920696    0.209464    0.815662
      9          1           0        1.365367    0.110859    1.864192
 ---------------------------------------------------------------------
                    Distance matrix (angstroms):
                    1          2          3          4          5
     1  C    0.000000
     2  C    2.078627   0.000000
     3  C    2.844528   1.277969   0.000000
     4  H    2.358087   1.081356   2.295275   0.000000
     5  H    1.086292   2.431058   3.450208   2.232551   0.000000
     6  H    1.099073   2.810447   3.218521   3.268220   1.784627
     7  H    1.090115   2.632134   3.371569   2.883823   1.807143
     8  H    1.512936   1.383386   1.472436   2.293166   2.353248
     9  H    3.923564   2.211854   1.079883   3.076941   4.493821
                    6          7          8          9
     6  H    0.000000
     7  H    1.789720   0.000000
     8  H    1.780597   2.117778   0.000000
     9  H    4.239444   4.421553   2.516986   0.000000
 Stoichiometry    C3H6
 Framework group  C1[X(C3H6)]
 Deg. of freedom    21
 Full point group                 C1      NOp   1
 Largest Abelian subgroup         C1      NOp   1
 Largest concise Abelian subgroup C1      NOp   1
                         Standard orientation:                         
 ---------------------------------------------------------------------
 Center     Atomic      Atomic             Coordinates (Angstroms)
 Number     Number       Type             X           Y           Z
 ---------------------------------------------------------------------
      1          6           0       -1.443113   -0.153815   -0.000704
      2          6           0        0.510382    0.555172    0.042706
      3          6           0        1.393378   -0.367458   -0.005023
      4          1           0        0.164229    1.568085   -0.110644
      5          1           0       -1.844021    0.695571   -0.546456
      6          1           0       -1.700692   -1.083194   -0.527836
      7          1           0       -1.812931   -0.198357    1.023796
      8          1           0       -0.037706   -0.713933   -0.009519
      9          1           0        2.467237   -0.471569   -0.051214
 ---------------------------------------------------------------------
 Rotational constants (GHZ):          41.4191038           7.3535819           6.5139497
 Standard basis: 6-31G(d,p) (6D, 7F)
 There are    75 symmetry adapted cartesian basis functions of A   symmetry.
 There are    75 symmetry adapted basis functions of A   symmetry.
    75 basis functions,   126 primitive gaussians,    75 cartesian basis functions
    12 alpha electrons       12 beta electrons
       nuclear repulsion energy        66.5992402310 Hartrees.
 NAtoms=    9 NActive=    9 NUniq=    9 SFac= 1.00D+00 NAtFMM=   60 NAOKFM=F Big=F
 Integral buffers will be    131072 words long.
 Raffenetti 2 integral format.
 Two-electron integral symmetry is turned on.
 One-electron integrals computed using PRISM.
 NBasis=    75 RedAO= T EigKep=  3.37D-03  NBF=    75
 NBsUse=    75 1.00D-06 EigRej= -1.00D+00 NBFU=    75
 Initial guess from the checkpoint file:  "/scratch/brown/zhao922/pyGSM/new-benchmarking/R1-3/TS-folder/Gau-203073.chk"
 B after Tr=    -0.000000   -0.000000    0.000000
         Rot=    0.999698    0.024447    0.000975   -0.002307 Ang=   2.82 deg.
 ExpMin= 1.61D-01 ExpMax= 3.05D+03 ExpMxC= 4.57D+02 IAcc=3 IRadAn=         5 AccDes= 0.00D+00
 Harris functional with IExCor=  402 and IRadAn=       5 diagonalized for initial guess.
 HarFok:  IExCor=  402 AccDes= 0.00D+00 IRadAn=         5 IDoV= 1 UseB2=F ITyADJ=14
 ICtDFT=  3500011 ScaDFX=  1.000000  1.000000  1.000000  1.000000
 FoFCou: FMM=F IPFlag=           0 FMFlag=      100000 FMFlg1=           0
         NFxFlg=           0 DoJE=T BraDBF=F KetDBF=T FulRan=T
         wScrn=  0.000000 ICntrl=       500 IOpCl=  0 I1Cent=   200000004 NGrid=           0
         NMat0=    1 NMatS0=      1 NMatT0=    0 NMatD0=    1 NMtDS0=    0 NMtDT0=    0
 Petite list used in FoFCou.
 Keep R1 ints in memory in canonical form, NReq=25608259.
 Requested convergence on RMS density matrix=1.00D-08 within 128 cycles.
 Requested convergence on MAX density matrix=1.00D-06.
 Requested convergence on             energy=1.00D-06.
 No special actions if energy rises.
 Integral accuracy reduced to 1.0D-05 until final iterations.
 Initial convergence to 1.0D-05 achieved.  Increase integral accuracy.
 SCF Done:  E(RB3LYP) =  -117.703395710     A.U. after   13 cycles
            NFock= 13  Conv=0.42D-08     -V/T= 2.0103
 DoSCS=F DFT=T ScalE2(SS,OS)=  1.000000  1.000000
 Range of M.O.s used for correlation:     1    75
 NBasis=    75 NAE=    12 NBE=    12 NFC=     0 NFV=     0
 NROrb=     75 NOA=    12 NOB=    12 NVA=    63 NVB=    63
 Symmetrizing basis deriv contribution to polar:
 IMax=3 JMax=2 DiffMx= 0.00D+00
 G2DrvN: will do    10 centers at a time, making    1 passes.
 Calling FoFCou, ICntrl=  3107 FMM=F I1Cent=   0 AccDes= 0.00D+00.
 End of G2Drv F.D. properties file   721 does not exist.
 End of G2Drv F.D. properties file   722 does not exist.
 End of G2Drv F.D. properties file   788 does not exist.
          IDoAtm=111111111
          Differentiating once with respect to electric field.
                with respect to dipole field.
          Differentiating once with respect to nuclear coordinates.
 Keep R1 ints in memory in canonical form, NReq=25532597.
          There are    30 degrees of freedom in the 1st order CPHF.  IDoFFX=6 NUNeed=     3.
     27 vectors produced by pass  0 Test12= 2.52D-15 3.33D-09 XBig12= 8.69D+01 5.50D+00.
 AX will form    27 AO Fock derivatives at one time.
     27 vectors produced by pass  1 Test12= 2.52D-15 3.33D-09 XBig12= 1.22D+01 7.72D-01.
     27 vectors produced by pass  2 Test12= 2.52D-15 3.33D-09 XBig12= 1.42D-01 8.88D-02.
     27 vectors produced by pass  3 Test12= 2.52D-15 3.33D-09 XBig12= 1.76D-04 2.72D-03.
     27 vectors produced by pass  4 Test12= 2.52D-15 3.33D-09 XBig12= 1.36D-07 7.57D-05.
     10 vectors produced by pass  5 Test12= 2.52D-15 3.33D-09 XBig12= 5.37D-11 1.23D-06.
      3 vectors produced by pass  6 Test12= 2.52D-15 3.33D-09 XBig12= 1.97D-14 2.08D-08.
 InvSVY:  IOpt=1 It=  1 EMax= 8.88D-16
 Solved reduced A of dimension   148 with    30 vectors.
 Isotropic polarizability for W=    0.000000       39.05 Bohr**3.
 End of Minotr F.D. properties file   721 does not exist.
 End of Minotr F.D. properties file   722 does not exist.
 End of Minotr F.D. properties file   788 does not exist.
 Calling FoFJK, ICntrl=    100127 FMM=F ISym2X=0 I1Cent= 0 IOpClX= 0 NMat=1 NMatS=1 NMatT=0.
 ***** Axes restored to original set *****
 -------------------------------------------------------------------
 Center     Atomic                   Forces (Hartrees/Bohr)
 Number     Number              X              Y              Z
 -------------------------------------------------------------------
      1        6           0.012000684   -0.003287230   -0.004638050
      2        6          -0.013617463    0.012094156   -0.009818473
      3        6           0.002188732    0.001653698   -0.018631527
      4        1           0.001389906   -0.005702498    0.003649880
      5        1          -0.001024649    0.001767956    0.001576548
      6        1           0.000018898    0.001216360    0.000416591
      7        1          -0.000762870   -0.001186947    0.001470033
      8        1           0.000700145   -0.004921884    0.020727981
      9        1          -0.000893383   -0.001633612    0.005247016
 -------------------------------------------------------------------
 Cartesian Forces:  Max     0.020727981 RMS     0.007465227
 FormGI is forming the generalized inverse of G from B-inverse, IUseBI=4.

 GradGradGradGradGradGradGradGradGradGradGradGradGradGradGradGradGradGrad
 Berny optimization.
 Internal  Forces:  Max     0.012080745 RMS     0.004285946
 Search for a saddle point.
 Step number   5 out of a maximum of  100
 All quantities printed in internal units (Hartrees-Bohrs-Radians)
 Swapping is turned off.
 Second derivative matrix not updated -- analytic derivatives used.
 ITU=  0  0  0  0  0
     Eigenvalues ---   -0.19505  -0.00045  -0.00026   0.00330   0.00692
     Eigenvalues ---    0.01301   0.03047   0.04942   0.05441   0.05803
     Eigenvalues ---    0.07136   0.09016   0.09728   0.12799   0.23415
     Eigenvalues ---    0.33176   0.35289   0.35765   0.36011   0.37452
     Eigenvalues ---    0.64515
 Eigenvectors required to have negative eigenvalues:
                          R8        A11       A8        A12       A5
   1                   -0.60558  -0.49489   0.37092  -0.29862  -0.18563
                          A3        R4        R5        A9        D7
   1                    0.16866   0.16587   0.15482  -0.10810  -0.07677
 RFO step:  Lambda0=4.757513601D-04 Lambda=-9.84534023D-03.
 Linear search not attempted -- option 19 set.
 Maximum step size (   0.300) exceeded in Quadratic search.
    -- Step size scaled by   0.519
 Iteration  1 RMS(Cart)=  0.12626006 RMS(Int)=  0.02351206
 Iteration  2 RMS(Cart)=  0.02762528 RMS(Int)=  0.00732209
 Iteration  3 RMS(Cart)=  0.00059372 RMS(Int)=  0.00729863
 Iteration  4 RMS(Cart)=  0.00000646 RMS(Int)=  0.00729862
 Iteration  5 RMS(Cart)=  0.00000020 RMS(Int)=  0.00729862
 Variable       Old X    -DE/DX   Delta X   Delta X   Delta X     New X
                                 (Linear)    (Quad)   (Total)
    R1        2.05279   0.00222   0.00000   0.00109   0.00109   2.05388
    R2        2.07695   0.00061   0.00000   0.00375   0.00375   2.08070
    R3        2.06002   0.00056   0.00000  -0.00181  -0.00181   2.05820
    R4        2.85904  -0.01005   0.00000  -0.16326  -0.16326   2.69577
    R5        2.41501   0.00841   0.00000   0.01434   0.01640   2.43142
    R6        2.04347   0.00289   0.00000   0.00854   0.00854   2.05200
    R7        2.61422  -0.01208   0.00000  -0.07574  -0.07599   2.53823
    R8        2.78250  -0.01038   0.00000   0.00352   0.00194   2.78444
    R9        2.04068   0.00038   0.00000   0.00526   0.00526   2.04594
    A1        1.91106  -0.00052   0.00000  -0.00600  -0.01063   1.90043
    A2        1.95941  -0.00019   0.00000   0.01541   0.01530   1.97471
    A3        2.25156  -0.00160   0.00000  -0.07754  -0.07777   2.17379
    A4        1.91420   0.00135   0.00000   0.00159   0.00341   1.91761
    A5        1.47249  -0.00009   0.00000  -0.06063  -0.06250   1.40999
    A6        1.88124   0.00146   0.00000   0.10507   0.10492   1.98617
    A7        2.67284  -0.00083   0.00000  -0.00824  -0.00772   2.66513
    A8        2.38495   0.00484   0.00000   0.03320   0.02274   2.40769
    A9        2.43147  -0.00371   0.00000  -0.09736  -0.09920   2.33227
   A10        2.80437   0.00786   0.00000   0.14466   0.13653   2.94090
   A11        1.59898  -0.00434   0.00000   0.01782   0.01969   1.61867
   A12        2.52474   0.00329   0.00000   0.03311   0.03046   2.55521
    D1        0.74716   0.00056   0.00000   0.27564   0.27588   1.02304
    D2        0.72271   0.00093   0.00000   0.15051   0.14651   0.86922
    D3        2.67731  -0.00051   0.00000   0.20219   0.20705   2.88436
    D4        2.65286  -0.00014   0.00000   0.07707   0.07769   2.73055
    D5       -1.70548   0.00089   0.00000   0.18592   0.18719  -1.51829
    D6       -1.72992   0.00125   0.00000   0.06080   0.05782  -1.67210
    D7        0.37619  -0.00184   0.00000  -0.05069  -0.08208   0.29412
    D8        2.55762   0.00209   0.00000   0.23954   0.22010   2.77772
    D9       -0.25621  -0.00044   0.00000   0.18915   0.18421  -0.07201
   D10        3.04812  -0.00007   0.00000   0.21246   0.21837  -3.01670
   D11       -3.01754  -0.00056   0.00000  -0.05635  -0.05894  -3.07648
         Item               Value     Threshold  Converged?
 Maximum Force            0.012081     0.000450     NO 
 RMS     Force            0.004286     0.000300     NO 
 Maximum Displacement     0.443341     0.001800     NO 
 RMS     Displacement     0.149048     0.001200     NO 
 Predicted change in Energy=-4.814863D-03
 GradGradGradGradGradGradGradGradGradGradGradGradGradGradGradGradGradGrad

                          Input orientation:                          
 ---------------------------------------------------------------------
 Center     Atomic      Atomic             Coordinates (Angstroms)
 Number     Number       Type             X           Y           Z
 ---------------------------------------------------------------------
      1          6           0       -2.397192    0.066388    0.877096
      2          6           0       -0.812208   -0.302611    2.049358
      3          6           0        0.289786    0.156768    1.569724
      4          1           0       -1.432523   -0.668796    2.861909
[...]
                      KCal/Mol        Cal/Mol-Kelvin    Cal/Mol-Kelvin
 Total                   48.165             14.260             65.221
 Electronic               0.000              0.000              0.000
 Translational            0.889              2.981             37.135
 Rotational               0.889              2.981             22.442
 Vibrational             46.388              8.299              5.643
 Vibration     1          0.617              1.907              2.721
 Vibration     2          0.712              1.618              1.265
 Vibration     3          0.873              1.211              0.615
                       Q            Log10(Q)             Ln(Q)
 Total Bot       0.326626D-21        -21.485949        -49.473226
 Total V=0       0.576810D+12         11.761033         27.080779
 Vib (Bot)       0.170190D-32        -32.769066        -75.453563
 Vib (Bot)    1  0.138813D+01          0.142429          0.327956
 Vib (Bot)    2  0.568379D+00         -0.245362         -0.564966
 Vib (Bot)    3  0.312511D+00         -0.505135         -1.163117
 Vib (V=0)       0.300549D+01          0.477916          1.100442
 Vib (V=0)    1  0.197543D+01          0.295662          0.680787
 Vib (V=0)    2  0.125700D+01          0.099337          0.228731
 Vib (V=0)    3  0.108963D+01          0.037279          0.085838
 Electronic      0.100000D+01          0.000000          0.000000
 Translational   0.107166D+08          7.030056         16.187301
 Rotational      0.179086D+05          4.253062          9.793036
 ***** Axes restored to original set *****
 -------------------------------------------------------------------
 Center     Atomic                   Forces (Hartrees/Bohr)
 Number     Number              X              Y              Z
 -------------------------------------------------------------------
      1        6          -0.000000056    0.000000605   -0.000000405
      2        6          -0.000000688    0.000000072    0.000000543
      3        6           0.000000069   -0.000000178    0.000000486
      4        1          -0.000000454   -0.000000480    0.000000359
      5        1           0.000000450   -0.000000295   -0.000000435
      6        1           0.000000159    0.000000065   -0.000000483
      7        1           0.000000202    0.000000712   -0.000000764
      8        1           0.000000531   -0.000000380    0.000000140
      9        1          -0.000000213   -0.000000121    0.000000558
 -------------------------------------------------------------------
 Cartesian Forces:  Max     0.000000764 RMS     0.000000423
 FormGI is forming the generalized inverse of G from B-inverse, IUseBI=4.

 GradGradGradGradGradGradGradGradGradGradGradGradGradGradGradGradGradGrad
 Berny optimization.
 Internal  Forces:  Max     0.000000842 RMS     0.000000230
 Search for a saddle point.
 Step number   1 out of a maximum of    2
 All quantities printed in internal units (Hartrees-Bohrs-Radians)
 Swapping is turned off.
 Second derivative matrix not updated -- analytic derivatives used.
 ITU=  0
     Eigenvalues ---   -0.08998   0.00100   0.01036   0.01743   0.03046
     Eigenvalues ---    0.04241   0.05355   0.06148   0.07312   0.08649
     Eigenvalues ---    0.11203   0.12635   0.13302   0.20037   0.24639
     Eigenvalues ---    0.32829   0.33916   0.34452   0.35931   0.36455
     Eigenvalues ---    0.40033
 Eigenvectors required to have negative eigenvalues:
                          A11       R7        R4        A12       A3
   1                   -0.47003  -0.40512   0.38466  -0.33001   0.27985
                          D11       R5        A5        A7        A10
   1                    0.20063   0.19865  -0.18955  -0.18769  -0.17254
 Angle between quadratic step and forces=  68.49 degrees.
 Linear search not attempted -- option 19 set.
 Iteration  1 RMS(Cart)=  0.00007393 RMS(Int)=  0.00000000
 Iteration  2 RMS(Cart)=  0.00000001 RMS(Int)=  0.00000000
 Variable       Old X    -DE/DX   Delta X   Delta X   Delta X     New X
                                 (Linear)    (Quad)   (Total)
    R1        2.05001   0.00000   0.00000  -0.00000  -0.00000   2.05000
    R2        2.06977  -0.00000   0.00000  -0.00000  -0.00000   2.06976
    R3        2.05579   0.00000   0.00000   0.00000   0.00000   2.05579
    R4        2.57693  -0.00000   0.00000   0.00000   0.00000   2.57693
    R5        2.52081   0.00000   0.00000  -0.00000  -0.00000   2.52081
    R6        2.05861   0.00000   0.00000   0.00000   0.00000   2.05861
    R7        2.24828   0.00000   0.00000  -0.00000  -0.00000   2.24828
    R8        3.89492   0.00000   0.00000  -0.00002  -0.00002   3.89490
    R9        2.08297   0.00000   0.00000  -0.00000  -0.00000   2.08297
    A1        1.92423   0.00000   0.00000   0.00001   0.00001   1.92424
    A2        1.95581   0.00000   0.00000  -0.00002  -0.00002   1.95580
    A3        2.26991  -0.00000   0.00000   0.00002   0.00002   2.26993
    A4        1.99056  -0.00000   0.00000   0.00000   0.00000   1.99056
    A5        1.58302   0.00000   0.00000   0.00004   0.00004   1.58307
    A6        1.71297   0.00000   0.00000  -0.00006  -0.00006   1.71292
    A7        2.46281  -0.00000   0.00000   0.00000   0.00000   2.46281
    A8        1.86731   0.00000   0.00000   0.00001   0.00001   1.86732
    A9        1.93186  -0.00000   0.00000   0.00000   0.00000   1.93187
   A10        2.38678  -0.00000   0.00000   0.00001   0.00001   2.38679
   A11        1.68830  -0.00000   0.00000   0.00000   0.00000   1.68830
   A12        1.79489   0.00000   0.00000   0.00001   0.00001   1.79490
    D1        0.42667  -0.00000   0.00000  -0.00023  -0.00023   0.42645
    D2        1.08497  -0.00000   0.00000  -0.00022  -0.00022   1.08475
    D3        2.47830  -0.00000   0.00000  -0.00016  -0.00016   2.47814
    D4        3.13660   0.00000   0.00000  -0.00015  -0.00015   3.13644
    D5       -1.80782  -0.00000   0.00000  -0.00016  -0.00016  -1.80798
    D6       -1.14952  -0.00000   0.00000  -0.00015  -0.00015  -1.14967
    D7       -0.18015  -0.00000   0.00000  -0.00000  -0.00000  -0.18015
    D8        2.76894  -0.00000   0.00000  -0.00001  -0.00001   2.76894
    D9       -1.60053   0.00000   0.00000   0.00002   0.00002  -1.60051
   D10        0.80843   0.00000   0.00000   0.00001   0.00001   0.80845
   D11       -2.28036  -0.00000   0.00000   0.00000   0.00000  -2.28036
         Item               Value     Threshold  Converged?
 Maximum Force            0.000001     0.000450     YES
 RMS     Force            0.000000     0.000300     YES
 Maximum Displacement     0.000184     0.001800     YES
 RMS     Displacement     0.000074     0.001200     YES
 Predicted change in Energy=-1.080276D-10
 Optimization completed.
    -- Stationary point found.
                           ----------------------------
                           !   Optimized Parameters   !
                           ! (Angstroms and Degrees)  !
 --------------------------                            --------------------------
 ! Name  Definition              Value          Derivative Info.                !
 --------------------------------------------------------------------------------
 ! R1    R(1,5)                  1.0848         -DE/DX =    0.0                 !
 ! R2    R(1,6)                  1.0953         -DE/DX =    0.0                 !
 ! R3    R(1,7)                  1.0879         -DE/DX =    0.0                 !
 ! R4    R(1,8)                  1.3637         -DE/DX =    0.0                 !
 ! R5    R(2,3)                  1.334          -DE/DX =    0.0                 !
 ! R6    R(2,4)                  1.0894         -DE/DX =    0.0                 !
 ! R7    R(2,8)                  1.1897         -DE/DX =    0.0                 !
 ! R8    R(3,8)                  2.0611         -DE/DX =    0.0                 !
 ! R9    R(3,9)                  1.1023         -DE/DX =    0.0                 !
 ! A1    A(5,1,6)              110.2502         -DE/DX =    0.0                 !
 ! A2    A(5,1,7)              112.0598         -DE/DX =    0.0                 !
 ! A3    A(5,1,8)              130.0562         -DE/DX =    0.0                 !
 ! A4    A(6,1,7)              114.0506         -DE/DX =    0.0                 !
 ! A5    A(6,1,8)               90.7005         -DE/DX =    0.0                 !
 ! A6    A(7,1,8)               98.1461         -DE/DX =    0.0                 !
 ! A7    A(3,2,4)              141.1085         -DE/DX =    0.0                 !
 ! A8    A(4,2,8)              106.989          -DE/DX =    0.0                 !
 ! A9    A(2,3,9)              110.6876         -DE/DX =    0.0                 !
 ! A10   A(8,3,9)              136.7524         -DE/DX =    0.0                 !
 ! A11   A(1,8,2)               96.7327         -DE/DX =    0.0                 !
 ! A12   A(1,8,3)              102.8394         -DE/DX =    0.0                 !
 ! D1    D(5,1,8,2)             24.4466         -DE/DX =    0.0                 !
 ! D2    D(5,1,8,3)             62.1644         -DE/DX =    0.0                 !
 ! D3    D(6,1,8,2)            141.9961         -DE/DX =    0.0                 !
 ! D4    D(6,1,8,3)            179.7139         -DE/DX =    0.0                 !
 ! D5    D(7,1,8,2)           -103.5804         -DE/DX =    0.0                 !
 ! D6    D(7,1,8,3)            -65.8626         -DE/DX =    0.0                 !
 ! D7    D(4,2,3,9)            -10.3217         -DE/DX =    0.0                 !
 ! D8    D(3,2,4,8)            158.6487         -DE/DX =    0.0                 !
 ! D9    D(4,2,8,1)            -91.7038         -DE/DX =    0.0                 !
 ! D10   D(2,3,8,9)             46.3198         -DE/DX =    0.0                 !
 ! D11   D(9,3,8,1)           -130.6551         -DE/DX =    0.0                 !
 --------------------------------------------------------------------------------
 GradGradGradGradGradGradGradGradGradGradGradGradGradGradGradGradGradGrad


 ----------------------------------------------------------------------

 Electric dipole moment (input orientation):
 (Debye = 10**-18 statcoulomb cm , SI units = C m)
                  (au)            (Debye)         (10**-30 SI)
   Tot        0.132386D+01      0.336491D+01      0.112241D+02
   x         -0.114010D+01     -0.289784D+01     -0.966616D+01
   y          0.633839D+00      0.161106D+01      0.537391D+01
   z          0.225871D+00      0.574107D+00      0.191501D+01

 Dipole polarizability, Alpha (input orientation).
 (esu units = cm**3 , SI units = C**2 m**2 J**-1)
 Alpha(0;0):
               (au)            (10**-24 esu)      (10**-40 SI)
   iso        0.380414D+02      0.563715D+01      0.627218D+01
   aniso      0.317320D+02      0.470219D+01      0.523189D+01
   xx         0.529507D+02      0.784649D+01      0.873040D+01
   yx        -0.100998D+02     -0.149663D+01     -0.166523D+01
   yy         0.284086D+02      0.420972D+01      0.468394D+01
   zx         0.773856D+01      0.114674D+01      0.127592D+01
   zy         0.151257D+01      0.224140D+00      0.249390D+00
   zz         0.327649D+02      0.485525D+01      0.540220D+01

 ----------------------------------------------------------------------

 Dipole orientation:
     6         -0.27029332         -2.31957382          4.09697544
     6          2.66852840         -1.94464823          2.02899009
     6          2.12746593         -2.10253501         -0.42799922
     1          4.21325095         -2.25908696          3.35293585
     1          0.15299183         -4.25678978          4.61711691
     1         -0.48888568         -1.15380669          5.79318698
     1         -1.85114686         -2.19932459          2.78827086
     1          1.23319244         -0.52551744          3.01927409
     1          3.85585189         -2.43392319         -1.54228799

 Electric dipole moment (dipole orientation):
 (Debye = 10**-18 statcoulomb cm , SI units = C m)
                  (au)            (Debye)         (10**-30 SI)
   Tot        0.132386D+01      0.336491D+01      0.112241D+02
   x          0.000000D+00      0.000000D+00      0.000000D+00
   y          0.000000D+00      0.000000D+00      0.000000D+00
   z          0.132386D+01      0.336491D+01      0.112241D+02

 Dipole polarizability, Alpha (dipole orientation).
 (esu units = cm**3 , SI units = C**2 m**2 J**-1)
 Alpha(0;0):
               (au)            (10**-24 esu)      (10**-40 SI)
   iso        0.380414D+02      0.563715D+01      0.627218D+01
   aniso      0.317320D+02      0.470219D+01      0.523189D+01
   xx         0.381296D+02      0.565022D+01      0.628672D+01
   yx        -0.107562D+01     -0.159390D+00     -0.177346D+00
   yy         0.229556D+02      0.340166D+01      0.378486D+01
   zx        -0.103541D+02     -0.153432D+01     -0.170716D+01
   zy         0.100764D+01      0.149317D+00      0.166137D+00
   zz         0.530391D+02      0.785958D+01      0.874496D+01

 ----------------------------------------------------------------------
 1\1\GINC-BROWN-A094\Freq\RB3LYP\6-31G(d,p)\C3H6\ZHAO922\17-Jul-2020\0\
 \#N Geom=AllCheck Guess=TCheck SCRF=Check GenChk RB3LYP/6-31G(d,p) Fre
 q\\pp_1_0 TS\\0,1\C,-2.3518562917,0.0005309878,0.8344092921\C,-0.76967
 16564,0.1839073012,1.8920022191\C,0.2156933876,-0.6066356887,1.4635967
 185\H,-1.1320974766,0.6734561357,2.7951713314\H,-2.8678991285,-0.61317
 62663,1.56508674\H,-2.9499605521,0.8856357204,0.592576171\H,-2.0395777
 411,-0.57452871,-0.0346495808\H,-1.2347817467,0.7711865514,0.967740704
 7\H,0.9968872056,-0.7078190315,2.2346214039\\Version=ES64L-G16RevB.01\
 State=1-A\HF=-117.7275971\RMSD=4.306e-10\RMSF=4.232e-07\ZeroPoint=0.07
 22811\Thermal=0.0767561\Dipole=-1.1400989,0.6338387,0.2258711\DipoleDe
 riv=-0.1695438,-0.0203888,-0.0068716,-0.1081442,0.0944975,0.0298297,0.
 0683679,-0.0380209,0.0074179,0.3382937,-0.1044637,0.1490883,-0.119906,
 -0.2133869,0.0644645,0.1004266,0.0983047,0.3001998,-0.4137292,-0.11768
 16,-0.0176605,-0.0138994,-0.3253443,-0.0223051,0.4505879,-0.08842,-0.2
 450348,-0.0717786,0.152163,0.0295732,0.0484464,0.1017005,-0.1555732,-0
 .0598012,-0.1060774,-0.0849999,-0.0427305,-0.0175094,-0.0111188,-0.053
 3793,0.0715574,0.015231,-0.0468262,0.0514391,0.0303451,-0.1019991,0.08
 24579,-0.089533,0.0423459,-0.0409667,0.0019309,-0.0860091,0.0223235,0.
 0437189,0.0140701,0.0258599,0.0119172,-0.0039891,0.058806,-0.0373984,-
 0.0270736,-0.015229,0.0154282,0.3749417,-0.0065152,0.0227554,0.1962517
 ,0.0868507,0.0552349,0.0007633,-0.0261444,-0.0015518,0.0724758,0.00607
 79,-0.0881502,0.012274,0.1662857,0.0485858,-0.4004356,0.1018245,-0.065
 5234\Polar=52.9507305,-10.0997718,28.4085764,7.7385603,1.512573,32.764
 8621\Quadrupole=-0.2791177,-0.3575074,0.6366251,0.773902,1.6674296,-0.
 8630226\PG=C01 [X(C3H6)]\NImag=1\\0.34355115,-0.07602851,0.53147964,-0
 .15420880,-0.00993534,0.50960892,-0.01958485,-0.08290775,0.07876373,0.
 27665265,0.02567090,0.02337362,-0.03727654,-0.21775581,0.31230031,-0.0
 1762150,-0.07245217,-0.01146282,-0.21163553,0.20316319,0.45343261,-0.0
 2666217,0.04529753,-0.02211882,-0.24652219,0.18838594,0.14114307,0.496
 73743,-0.00339797,-0.03022580,0.02507086,0.14708471,-0.15413326,-0.129
 51957,-0.22550499,0.20939130,0.00671623,-0.00295220,0.02318552,0.02431
 270,-0.06243009,-0.11899085,0.06748398,0.04503473,0.23489812,0.0038471
 6,-0.00330350,-0.01984820,-0.07231828,0.04997407,0.08722751,0.00182042
 ,0.01771078,0.01796982,0.07863569,-0.00558427,-0.00263149,-0.00532850,
 0.05363874,-0.08830229,-0.10859850,0.01068872,0.00366519,-0.01585754,-
 0.05460221,0.08728945,0.00374700,0.00661268,-0.01049382,0.08545144,-0.
 11087278,-0.22905388,-0.00240151,-0.00023956,0.00772751,-0.07559709,0.
 11378581,0.25345917,-0.09843300,-0.08626409,0.11030926,-0.03277782,0.0
 0141626,-0.00446896,0.00493515,-0.00778321,-0.00408577,0.00208607,-0.0
 0011126,0.00092003,0.10643975,-0.07818735,-0.14485394,0.11963645,-0.00
 742394,0.00350652,-0.00111679,0.00188165,-0.00160443,-0.00131953,0.000
 39458,-0.00029727,0.00004021,0.07986025,0.14583195,0.10206054,0.111914
 36,-0.17918966,-0.02440260,0.00178172,-0.00109730,0.00398934,-0.005531
 96,-0.00312055,0.00065307,-0.00030419,0.00090682,-0.10185757,-0.125420
 33,0.19348497,-0.11872963,0.12773430,-0.03407850,0.01700734,-0.0054919
 2,0.01543197,-0.01358411,0.00791802,0.00271724,0.00005886,-0.00012715,
 -0.00249704,0.01059157,-0.01241066,0.00349854,0.13002092,0.11636610,-0
 .22525196,0.04288920,0.00726312,0.00122191,0.00812629,-0.00413666,0.00
 235621,0.00073486,0.00021100,-0.00068221,-0.00115102,0.01126869,-0.013
 40214,0.00209718,-0.12835467,0.23981223,-0.02941862,0.04942080,-0.0675
 1584,0.00968130,-0.00127616,0.00596288,-0.00424822,0.00334329,0.001535
 14,-0.00043821,-0.00035214,-0.00191356,-0.01210209,0.01754130,-0.00266
 985,0.03286066,-0.05335915,0.05736894,-0.06605426,0.04864589,0.0733895
 9,0.00681730,-0.01220573,-0.01141362,0.00301181,-0.00007990,0.00243731
 ,-0.00541737,-0.00075358,-0.00246240,-0.00210411,0.00972827,0.01030594
 ,-0.00224345,0.00512040,0.01291779,0.06799329,0.04771179,-0.12982752,-
 0.12144078,0.00053511,-0.00225823,-0.00112123,0.00050429,-0.00055074,0
 .00140425,-0.00066697,0.00008029,-0.00037820,-0.00400806,0.01221548,0.
 01609809,0.00279470,-0.00919948,-0.01827948,-0.04682805,0.13451777,0.0
 7123093,-0.12000945,-0.23455512,0.00416633,-0.00507969,-0.00549059,0.0
 0121511,0.00116790,0.00161528,-0.00292547,-0.00058928,-0.00081178,0.00
 361837,-0.01156724,-0.01319489,-0.00263681,0.00695370,0.01113163,-0.07
 388536,0.13127539,0.24589715,-0.02278121,0.02047975,-0.03209554,0.0910
 5426,-0.03020074,0.02162012,-0.05102956,0.04427587,0.00952748,-0.00823
 720,0.00008810,-0.00880508,0.00811942,0.00600604,0.00537945,-0.0224945
 2,-0.00707985,-0.00868983,-0.00222590,-0.00020513,-0.00100283,0.012237
 90,-0.02943020,-0.02382268,-0.00976960,0.07349747,-0.08526875,0.091209
 00,-0.01853083,-0.00315566,0.01802770,-0.00428370,0.00463657,-0.008850
 35,0.00387252,-0.00167316,-0.00111651,0.00794311,0.00424088,0.00285124
 ,-0.00422196,-0.00505488,-0.00234704,-0.03399825,0.10261980,0.02316145
 ,0.03431024,-0.02773439,0.00325294,0.03086081,-0.08875860,-0.01874701,
 0.01807959,0.00570503,-0.00712239,0.01421075,-0.01994311,0.00803504,0.
 00219462,0.00463674,-0.01303059,-0.00590345,-0.00367894,-0.01216271,-0
 .00769809,-0.00496245,0.01820049,-0.08443539,0.13523309,0.00484681,0.0
 0634637,-0.00011272,-0.02032842,0.00020704,-0.02028305,-0.16870677,0.0
 1977668,-0.12707900,-0.00047534,-0.00323709,0.00164464,0.00114297,0.00
 015115,0.00037329,-0.00062699,-0.00065814,-0.00056277,0.00022268,0.000
 16232,0.00021973,-0.00464319,0.00515185,-0.00158721,0.18856825,0.00287
 950,0.00176011,-0.00384574,0.02606834,-0.01043983,0.01030979,0.0014143
 6,-0.02574281,0.01735782,-0.00543405,-0.00375825,0.00105321,0.00174890
 ,0.00027699,0.00048164,-0.00000574,0.00090456,0.00011029,0.00059466,0.
 00007730,0.00019571,0.00063421,0.00747789,-0.00161908,-0.02790019,0.02
 944404,-0.00566721,0.00309108,-0.00184277,0.03040969,-0.01887046,-0.00
 454145,-0.16631594,0.04259472,-0.15255520,0.00008096,0.00303359,0.0001
 2266,-0.00036830,0.00001130,0.00024372,-0.00226548,-0.00038761,-0.0002
 2041,0.00087347,0.00014007,0.00037078,-0.00413426,-0.00556904,-0.00049
 737,0.14738708,-0.02404365,0.15892004\\0.00000006,-0.00000060,0.000000
 40,0.00000069,-0.00000007,-0.00000054,-0.00000007,0.00000018,-0.000000
 49,0.00000045,0.00000048,-0.00000036,-0.00000045,0.00000030,0.00000043
 ,-0.00000016,-0.00000007,0.00000048,-0.00000020,-0.00000071,0.00000076
 ,-0.00000053,0.00000038,-0.00000014,0.00000021,0.00000012,-0.00000056\
 \\@


 BE NOT THE FIRST BY WHOM THE NEW ARE TRIED,
 NOR YET THE THE LAST TO LAY THE OLD ASIDE.

                          -- ALEXANDER POPE
 Job cpu time:       0 days  0 hours  1 minutes 54.6 seconds.
 Elapsed time:       0 days  0 hours  0 minutes  5.4 seconds.
 File lengths (MBytes):  RWF=     10 Int=      0 D2E=      0 Chk=      2 Scr=      1
 Normal termination of Gaussian 16 at Fri Jul 17 17:26:50 2020.
