 Entering Gaussian System, Link 0=g16
 Initial command:
 /apps/cent7/gaussian/g16-B.01/g16-haswell/g16/l1.exe "/scratch/brown/zhao922/pyGSM/new-benchmarking/R1-3/TS-folder/Gau-220521.inp" -scrdir="/scratch/brown/zhao922/pyGSM/new-benchmarking/R1-3/TS-folder/"
 Entering Link 1 = /apps/cent7/gaussian/g16-B.01/g16-haswell/g16/l1.exe PID=    220522.
  
 Copyright (c) 1988-2017, Gaussian, Inc.  All Rights Reserved.
  
 This is part of the Gaussian(R) 16 program.  It is based on
 the Gaussian(R) 09 system (copyright 2009, Gaussian, Inc.),
 the Gaussian(R) 03 system (copyright 2003, Gaussian, Inc.),
 the Gaussian(R) 98 system (copyright 1998, Gaussian, Inc.),
 the Gaussian(R) 94 system (copyright 1995, Gaussian, Inc.),
 the Gaussian 92(TM) system (copyright 1992, Gaussian, Inc.),
 the Gaussian 90(TM) system (copyright 1990, Gaussian, Inc.),
 the Gaussian 88(TM) system (copyright 1988, Gaussian, Inc.),
 the Gaussian 86(TM) system (copyright 1986, Carnegie Mellon
 University), and the Gaussian 82(TM) system (copyright 1983,
 Carnegie Mellon University). Gaussian is a federally registered
 trademark of Gaussian, Inc.
  
 This software contains proprietary and confidential information,
 including trade secrets, belonging to Gaussian, Inc.
  
 This software is provided under written license and may be
 used, copied, transmitted, or stored only in accord with that
 written license.
  
 The following legend is applicable only to US Government
 contracts under FAR:
  
                    RESTRICTED RIGHTS LEGEND
  
 Use, reproduction and disclosure by the US Government is
 subject to restrictions as set forth in subparagraphs (a)
 and (c) of the Commercial Computer Software - Restricted
 Rights clause in FAR 52.227-19.
  
 Gaussian, Inc.
 340 Quinnipiac St., Bldg. 40, Wallingford CT 06492
  
  
 ---------------------------------------------------------------
 Warning -- This program may not be used in any manner that
 competes with the business of Gaussian, Inc. or will provide
 assistance to any competitor of Gaussian, Inc.  The licensee
 of this program is prohibited from giving any competitor of
 Gaussian, Inc. access to this program.  By using this program,
 the user acknowledges that Gaussian, Inc. is engaged in the
 business of creating and licensing software in the field of
 computational chemistry and represents and warrants to the
 licensee that it is not a competitor of Gaussian, Inc. and that
 it will not use this program in any manner prohibited above.
 ---------------------------------------------------------------
  

 Cite this work as:
 Gaussian 16, Revision B.01,
 M. J. Frisch, G. W. Trucks, H. B. Schlegel, G. E. Scuseria, 
 M. A. Robb, J. R. Cheeseman, G. Scalmani, V. Barone, 
 G. A. Petersson, H. Nakatsuji, X. Li, M. Caricato, A. V. Marenich, 
 J. Bloino, B. G. Janesko, R. Gomperts, B. Mennucci, H. P. Hratchian, 
 J. V. Ortiz, A. F. Izmaylov, J. L. Sonnenberg, D. Williams-Young, 
 F. Ding, F. Lipparini, F. Egidi, J. Goings, B. Peng, A. Petrone, 
 T. Henderson, D. Ranasinghe, V. G. Zakrzewski, J. Gao, N. Rega, 
 G. Zheng, W. Liang, M. Hada, M. Ehara, K. Toyota, R. Fukuda, 
 J. Hasegawa, M. Ishida, T. Nakajima, Y. Honda, O. Kitao, H. Nakai, 
 T. Vreven, K. Throssell, J. A. Montgomery, Jr., J. E. Peralta, 
 F. Ogliaro, M. J. Bearpark, J. J. Heyd, E. N. Brothers, K. N. Kudin, 
 V. N. Staroverov, T. A. Keith, R. Kobayashi, J. Normand, 
 K. Raghavachari, A. P. Rendell, J. C. Burant, S. S. Iyengar, 
 J. Tomasi, M. Cossi, J. M. Millam, M. Klene, C. Adamo, R. Cammi, 
 J. W. Ochterski, R. L. Martin, K. Morokuma, O. Farkas, 
 J. B. Foresman, and D. J. Fox, Gaussian, Inc., Wallingford CT, 2016.
 
 ******************************************
 Gaussian 16:  ES64L-G16RevB.01 20-Dec-2017
                17-Jul-2020 
 ******************************************
 %NProcShared=24
 Will use up to   24 processors via shared memory.
 %Mem=60GB
 --------------------------------------------------------------
 # B3LYP/6-31G** OPT=(TS, CALCALL, NOEIGEN, maxcycles=100) Freq
 --------------------------------------------------------------
 1/5=1,6=100,10=4,11=1,18=20,26=3,38=1/1,3;
 2/9=110,12=2,17=6,18=5,40=1/2;
 3/5=1,6=6,7=101,11=2,25=1,30=1,71=2,74=-5,140=1/1,2,3;
 4//1;
 5/5=2,38=5/2;
 8/6=4,10=90,11=11/1;
 11/6=1,8=1,9=11,15=111,16=1/1,2,10;
 10/6=1/2;
 6/7=2,8=2,9=2,10=2,18=1,28=1/1;
 7/10=1,25=1/1,2,3,16;
 1/5=1,6=100,10=4,11=1,18=20,26=3/3(3);
 2/9=110/2;
 7/8=1,9=1,25=1,44=-1/16;
 99//99;
 2/9=110/2;
 3/5=1,6=6,7=101,11=2,25=1,30=1,71=2,74=-5,140=1/1,2,3;
 4/5=5,16=3,69=1/1;
 5/5=2,38=5/2;
 8/6=4,10=90,11=11/1;
 11/6=1,8=1,9=11,15=111,16=1/1,2,10;
 10/6=1/2;
 7/10=1,25=1/1,2,3,16;
 1/5=1,6=100,10=4,11=1,18=20,26=3/3(-8);
 2/9=110/2;
 6/7=2,8=2,9=2,10=2,18=1,19=2,28=1/1;
 7/8=1,9=1,25=1,44=-1/16;
 99//99;
 ---------
 pp_2_2 TS
 ---------
 Symbolic Z-matrix:
 Charge =  0 Multiplicity = 1
 C                    -2.5308    0.26887   1.40449 
 C                    -1.22441  -0.3876    1.76898 
 C                    -0.16704   0.03144   0.8679 
 H                    -0.95491  -0.49093   2.81416 
 H                    -2.88787   0.18179   0.4005 
 H                    -3.03911   0.97895   2.03035 
 H                    -1.76798  -1.4173    1.54546 
 H                    -0.27059  -0.00879  -0.1958 
 H                     0.8184    0.17661   1.28032 
 

 GradGradGradGradGradGradGradGradGradGradGradGradGradGradGradGradGradGrad
 Berny optimization.
 Initialization pass.
                           ----------------------------
                           !    Initial Parameters    !
                           ! (Angstroms and Degrees)  !
 --------------------------                            --------------------------
 ! Name  Definition              Value          Derivative Info.                !
 --------------------------------------------------------------------------------
 ! R1    R(1,2)                  1.5068         calculate D2E/DX2 analytically  !
 ! R2    R(1,5)                  1.0692         calculate D2E/DX2 analytically  !
 ! R3    R(1,6)                  1.0744         calculate D2E/DX2 analytically  !
 ! R4    R(2,3)                  1.4511         calculate D2E/DX2 analytically  !
 ! R5    R(2,4)                  1.0843         calculate D2E/DX2 analytically  !
 ! R6    R(2,7)                  1.1856         calculate D2E/DX2 analytically  !
 ! R7    R(3,8)                  1.0695         calculate D2E/DX2 analytically  !
 ! R8    R(3,9)                  1.0781         calculate D2E/DX2 analytically  !
 ! A1    A(2,1,5)              118.7653         calculate D2E/DX2 analytically  !
 ! A2    A(2,1,6)              123.864          calculate D2E/DX2 analytically  !
 ! A3    A(5,1,6)              116.2858         calculate D2E/DX2 analytically  !
 ! A4    A(1,2,3)              110.8388         calculate D2E/DX2 analytically  !
 ! A5    A(1,2,4)              119.352          calculate D2E/DX2 analytically  !
 ! A6    A(1,2,7)               86.2889         calculate D2E/DX2 analytically  !
 ! A7    A(3,2,4)              116.4225         calculate D2E/DX2 analytically  !
 ! A8    A(3,2,7)              117.8923         calculate D2E/DX2 analytically  !
 ! A9    A(4,2,7)              102.2934         calculate D2E/DX2 analytically  !
 ! A10   A(2,3,8)              122.4254         calculate D2E/DX2 analytically  !
 ! A11   A(2,3,9)              117.8652         calculate D2E/DX2 analytically  !
 ! A12   A(8,3,9)              118.2983         calculate D2E/DX2 analytically  !
 ! D1    D(5,1,2,3)             53.4884         calculate D2E/DX2 analytically  !
 ! D2    D(5,1,2,4)           -167.0195         calculate D2E/DX2 analytically  !
 ! D3    D(5,1,2,7)            -64.9959         calculate D2E/DX2 analytically  !
 ! D4    D(6,1,2,3)           -114.142          calculate D2E/DX2 analytically  !
 ! D5    D(6,1,2,4)             25.3502         calculate D2E/DX2 analytically  !
 ! D6    D(6,1,2,7)            127.3737         calculate D2E/DX2 analytically  !
 ! D7    D(1,2,3,8)            -50.7715         calculate D2E/DX2 analytically  !
 ! D8    D(1,2,3,9)            143.0284         calculate D2E/DX2 analytically  !
 ! D9    D(4,2,3,8)            168.4417         calculate D2E/DX2 analytically  !
 ! D10   D(4,2,3,9)              2.2417         calculate D2E/DX2 analytically  !
 ! D11   D(7,2,3,8)             46.3003         calculate D2E/DX2 analytically  !
 ! D12   D(7,2,3,9)           -119.8997         calculate D2E/DX2 analytically  !
 --------------------------------------------------------------------------------
 Trust Radius=3.00D-01 FncErr=1.00D-07 GrdErr=1.00D-06 EigMax=2.50D+02 EigMin=1.00D-04
 Number of steps in this run=    100 maximum allowed number of steps=    100.
 Search for a saddle point of order  1.
 GradGradGradGradGradGradGradGradGradGradGradGradGradGradGradGradGradGrad

                          Input orientation:                          
 ---------------------------------------------------------------------
 Center     Atomic      Atomic             Coordinates (Angstroms)
 Number     Number       Type             X           Y           Z
 ---------------------------------------------------------------------
      1          6           0       -2.530802    0.268871    1.404492
      2          6           0       -1.224407   -0.387600    1.768983
      3          6           0       -0.167035    0.031444    0.867896
      4          1           0       -0.954909   -0.490928    2.814162
      5          1           0       -2.887872    0.181791    0.400495
      6          1           0       -3.039106    0.978954    2.030345
      7          1           0       -1.767984   -1.417297    1.545456
      8          1           0       -0.270593   -0.008790   -0.195801
      9          1           0        0.818396    0.176610    1.280320
 ---------------------------------------------------------------------
                    Distance matrix (angstroms):
                    1          2          3          4          5
     1  C    0.000000
     2  C    1.506810   0.000000
     3  C    2.435508   1.451066   0.000000
     4  H    2.246754   1.084299   2.163693   0.000000
     5  H    1.069155   2.228022   2.764782   3.164599   0.000000
     6  H    1.074376   2.286682   3.240039   2.668108   1.820646
     7  H    1.856051   1.185629   2.262957   1.768860   2.263221
     8  H    2.783268   2.216672   1.069483   3.124200   2.691104
     9  H    3.352769   2.174895   1.078073   2.437804   3.809270
                    6          7          8          9
     6  H    0.000000
     7  H    2.755519   0.000000
     8  H    3.687279   2.694076   0.000000
     9  H    4.010812   3.049623   1.843693   0.000000
 Stoichiometry    C3H6
 Framework group  C1[X(C3H6)]
 Deg. of freedom    21
 Full point group                 C1      NOp   1
 Largest Abelian subgroup         C1      NOp   1
 Largest concise Abelian subgroup C1      NOp   1
                         Standard orientation:                         
 ---------------------------------------------------------------------
 Center     Atomic      Atomic             Coordinates (Angstroms)
 Number     Number       Type             X           Y           Z
 ---------------------------------------------------------------------
      1          6           0       -1.228378   -0.241172   -0.083321
      2          6           0        0.042592    0.545434    0.107367
      3          6           0        1.206434   -0.299383   -0.085893
      4          1           0        0.107652    1.553783   -0.285957
      5          1           0       -1.366174   -1.140300    0.478527
      6          1           0       -1.925716   -0.067621   -0.881996
      7          1           0       -0.329842    0.731062    1.217570
      8          1           0        1.322314   -1.238667    0.412215
      9          1           0        2.067877    0.132468   -0.569278
 ---------------------------------------------------------------------
 Rotational constants (GHZ):          34.6418511           9.9573838           8.6169729
 Standard basis: 6-31G(d,p) (6D, 7F)
 There are    75 symmetry adapted cartesian basis functions of A   symmetry.
 There are    75 symmetry adapted basis functions of A   symmetry.
    75 basis functions,   126 primitive gaussians,    75 cartesian basis functions
    12 alpha electrons       12 beta electrons
       nuclear repulsion energy        69.9902441289 Hartrees.
 NAtoms=    9 NActive=    9 NUniq=    9 SFac= 1.00D+00 NAtFMM=   60 NAOKFM=F Big=F
 Integral buffers will be    131072 words long.
 Raffenetti 2 integral format.
 Two-electron integral symmetry is turned on.
 One-electron integrals computed using PRISM.
 NBasis=    75 RedAO= T EigKep=  6.64D-03  NBF=    75
 NBsUse=    75 1.00D-06 EigRej= -1.00D+00 NBFU=    75
 ExpMin= 1.61D-01 ExpMax= 3.05D+03 ExpMxC= 4.57D+02 IAcc=3 IRadAn=         5 AccDes= 0.00D+00
 Harris functional with IExCor=  402 and IRadAn=       5 diagonalized for initial guess.
 HarFok:  IExCor=  402 AccDes= 0.00D+00 IRadAn=         5 IDoV= 1 UseB2=F ITyADJ=14
 ICtDFT=  3500011 ScaDFX=  1.000000  1.000000  1.000000  1.000000
 FoFCou: FMM=F IPFlag=           0 FMFlag=      100000 FMFlg1=           0
         NFxFlg=           0 DoJE=T BraDBF=F KetDBF=T FulRan=T
         wScrn=  0.000000 ICntrl=       500 IOpCl=  0 I1Cent=   200000004 NGrid=           0
         NMat0=    1 NMatS0=      1 NMatT0=    0 NMatD0=    1 NMtDS0=    0 NMtDT0=    0
 Petite list used in FoFCou.
 Keep R1 ints in memory in canonical form, NReq=25608259.
 Requested convergence on RMS density matrix=1.00D-08 within 128 cycles.
 Requested convergence on MAX density matrix=1.00D-06.
 Requested convergence on             energy=1.00D-06.
 No special actions if energy rises.
 Integral accuracy reduced to 1.0D-05 until final iterations.
 EnCoef did     4 forward-backward iterations
 Initial convergence to 1.0D-05 achieved.  Increase integral accuracy.
 SCF Done:  E(RB3LYP) =  -117.735328826     A.U. after   16 cycles
            NFock= 16  Conv=0.48D-08     -V/T= 2.0095
 DoSCS=F DFT=T ScalE2(SS,OS)=  1.000000  1.000000
 Range of M.O.s used for correlation:     1    75
 NBasis=    75 NAE=    12 NBE=    12 NFC=     0 NFV=     0
 NROrb=     75 NOA=    12 NOB=    12 NVA=    63 NVB=    63

 **** Warning!!: The smallest alpha delta epsilon is  0.48979695D-01

 Symmetrizing basis deriv contribution to polar:
 IMax=3 JMax=2 DiffMx= 0.00D+00
 G2DrvN: will do    10 centers at a time, making    1 passes.
 Calling FoFCou, ICntrl=  3107 FMM=F I1Cent=   0 AccDes= 0.00D+00.
 End of G2Drv F.D. properties file   721 does not exist.
 End of G2Drv F.D. properties file   722 does not exist.
 End of G2Drv F.D. properties file   788 does not exist.
          IDoAtm=111111111
          Differentiating once with respect to electric field.
                with respect to dipole field.
          Differentiating once with respect to nuclear coordinates.
 Keep R1 ints in memory in canonical form, NReq=25532597.
          There are    30 degrees of freedom in the 1st order CPHF.  IDoFFX=6 NUNeed=     3.
     27 vectors produced by pass  0 Test12= 2.52D-15 3.33D-09 XBig12= 1.54D+03 3.88D+01.
 AX will form    27 AO Fock derivatives at one time.
     27 vectors produced by pass  1 Test12= 2.52D-15 3.33D-09 XBig12= 3.20D+02 4.05D+00.
     27 vectors produced by pass  2 Test12= 2.52D-15 3.33D-09 XBig12= 4.34D+00 4.91D-01.
     27 vectors produced by pass  3 Test12= 2.52D-15 3.33D-09 XBig12= 5.52D-03 1.31D-02.
     27 vectors produced by pass  4 Test12= 2.52D-15 3.33D-09 XBig12= 3.55D-06 3.72D-04.
     11 vectors produced by pass  5 Test12= 2.52D-15 3.33D-09 XBig12= 1.89D-09 6.88D-06.
      2 vectors produced by pass  6 Test12= 2.52D-15 3.33D-09 XBig12= 6.84D-13 1.56D-07.
 InvSVY:  IOpt=1 It=  1 EMax= 7.11D-15
 Solved reduced A of dimension   148 with    30 vectors.
 Isotropic polarizability for W=    0.000000       42.98 Bohr**3.
 End of Minotr F.D. properties file   721 does not exist.
 End of Minotr F.D. properties file   722 does not exist.
 End of Minotr F.D. properties file   788 does not exist.

 **********************************************************************

            Population analysis using the SCF Density.

 **********************************************************************

 Orbital symmetries:
       Occupied  (A) (A) (A) (A) (A) (A) (A) (A) (A) (A) (A) (A)
       Virtual   (A) (A) (A) (A) (A) (A) (A) (A) (A) (A) (A) (A)
                 (A) (A) (A) (A) (A) (A) (A) (A) (A) (A) (A) (A)
                 (A) (A) (A) (A) (A) (A) (A) (A) (A) (A) (A) (A)
                 (A) (A) (A) (A) (A) (A) (A) (A) (A) (A) (A) (A)
                 (A) (A) (A) (A) (A) (A) (A) (A) (A) (A) (A) (A)
                 (A) (A) (A)
 The electronic state is 1-A.
 Alpha  occ. eigenvalues --  -10.20831 -10.19548 -10.19511  -0.78537  -0.65963
 Alpha  occ. eigenvalues --   -0.57237  -0.47273  -0.41986  -0.41236  -0.37421
 Alpha  occ. eigenvalues --   -0.33834  -0.14835
 Alpha virt. eigenvalues --   -0.09938   0.11117   0.12361   0.14774   0.15668
 Alpha virt. eigenvalues --    0.19374   0.20918   0.27035   0.29263   0.50518
 Alpha virt. eigenvalues --    0.53086   0.55222   0.57212   0.57859   0.64348
 Alpha virt. eigenvalues --    0.64855   0.69533   0.79715   0.81427   0.84831
 Alpha virt. eigenvalues --    0.86329   0.89863   0.91121   0.92730   1.00991
 Alpha virt. eigenvalues --    1.12861   1.28026   1.34720   1.46279   1.50621
 Alpha virt. eigenvalues --    1.59646   1.74816   1.84448   1.87995   1.92240
 Alpha virt. eigenvalues --    1.95482   1.97751   2.06010   2.07633   2.13384
 Alpha virt. eigenvalues --    2.23633   2.31298   2.34938   2.38505   2.43894
 Alpha virt. eigenvalues --    2.48688   2.52274   2.55758   2.61511   2.68325
 Alpha virt. eigenvalues --    2.73015   2.76144   2.89327   2.97465   3.16915
 Alpha virt. eigenvalues --    3.31156   3.33557   3.41346   3.52801   3.62387
 Alpha virt. eigenvalues --    4.22972   4.34104   4.57189
          Condensed to atoms (all electrons):
               1          2          3          4          5          6
     1  C    5.308649   0.343603   0.049031  -0.026220   0.388172   0.363860
     2  C    0.343603   4.785335   0.367062   0.390692  -0.035523  -0.034143
     3  C    0.049031   0.367062   5.164755  -0.033624  -0.003141   0.005484
     4  H   -0.026220   0.390692  -0.033624   0.605036   0.004139  -0.005603
     5  H    0.388172  -0.035523  -0.003141   0.004139   0.565321  -0.041576
     6  H    0.363860  -0.034143   0.005484  -0.005603  -0.041576   0.580986
     7  H   -0.181019   0.388060  -0.063398  -0.038695  -0.009342   0.011595
     8  H   -0.006403  -0.033561   0.391435   0.004645   0.003358  -0.000206
     9  H    0.003167  -0.035056   0.387712  -0.007852  -0.000077  -0.000124
               7          8          9
     1  C   -0.181019  -0.006403   0.003167
     2  C    0.388060  -0.033561  -0.035056
     3  C   -0.063398   0.391435   0.387712
     4  H   -0.038695   0.004645  -0.007852
     5  H   -0.009342   0.003358  -0.000077
     6  H    0.011595  -0.000206  -0.000124
     7  H    0.840099  -0.005573   0.003800
     8  H   -0.005573   0.569721  -0.039848
     9  H    0.003800  -0.039848   0.570438
 Mulliken charges:
               1
     1  C   -0.242840
     2  C   -0.136469
     3  C   -0.265315
     4  H    0.107483
     5  H    0.128669
     6  H    0.119726
     7  H    0.054473
     8  H    0.116433
     9  H    0.117840
 Sum of Mulliken charges =  -0.00000
 Mulliken charges with hydrogens summed into heavy atoms:
               1
     1  C    0.005555
     2  C    0.025487
     3  C   -0.031042
 APT charges:
               1
     1  C   -0.244454
     2  C    0.335174
     3  C   -0.230339
     4  H    0.028629
     5  H    0.032037
     6  H    0.066945
     7  H   -0.059329
     8  H    0.020215
     9  H    0.051121
 Sum of APT charges =   0.00000
 APT charges with hydrogens summed into heavy atoms:
               1
     1  C   -0.145472
     2  C    0.304474
     3  C   -0.159003
 Electronic spatial extent (au):  <R**2>=            191.8408
 Charge=             -0.0000 electrons
 Dipole moment (field-independent basis, Debye):
    X=             -0.2247    Y=             -0.0428    Z=             -0.0983  Tot=              0.2489
 Quadrupole moment (field-independent basis, Debye-Ang):
   XX=            -18.8197   YY=            -19.7694   ZZ=            -21.4819
   XY=              0.5177   XZ=             -0.1480   YZ=             -1.9321
 Traceless Quadrupole moment (field-independent basis, Debye-Ang):
   XX=              1.2040   YY=              0.2543   ZZ=             -1.4582
   XY=              0.5177   XZ=             -0.1480   YZ=             -1.9321
 Octapole moment (field-independent basis, Debye-Ang**2):
  XXX=              0.8892  YYY=              0.2306  ZZZ=             -0.3236  XYY=              0.3166
  XXY=             -0.3103  XXZ=             -1.7491  XZZ=             -1.2699  YZZ=             -0.1143
  YYZ=              0.6930  XYZ=             -0.3833
 Hexadecapole moment (field-independent basis, Debye-Ang**3):
 XXXX=           -158.1153 YYYY=            -58.0445 ZZZZ=            -39.6884 XXXY=              2.3353
 XXXZ=              0.3993 YYYX=              0.4591 YYYZ=             -4.6933 ZZZX=              0.4031
 ZZZY=             -2.9283 XXYY=            -36.9450 XXZZ=            -33.4181 YYZZ=            -17.4704
 XXYZ=             -2.7578 YYXZ=             -0.1993 ZZXY=              0.2634
 N-N= 6.999024412885D+01 E-N=-4.117935271511D+02  KE= 1.166310256539D+02
  Exact polarizability:  74.952  -0.275  28.743  -0.041  -2.157  25.248
 Approx polarizability: 352.981 -10.644  37.568  -8.840  -2.640  34.221
 Calling FoFJK, ICntrl=    100127 FMM=F ISym2X=0 I1Cent= 0 IOpClX= 0 NMat=1 NMatS=1 NMatT=0.
 ***** Axes restored to original set *****
 -------------------------------------------------------------------
 Center     Atomic                   Forces (Hartrees/Bohr)
 Number     Number              X              Y              Z
 -------------------------------------------------------------------
      1        6           0.028970680    0.060814477    0.011156840
      2        6          -0.075859169   -0.113130958   -0.007830581
      3        6          -0.007055665    0.014620629   -0.001830063
      4        1          -0.001886354    0.012482205    0.004750997
      5        1          -0.003094570   -0.004859451   -0.010219518
      6        1           0.001636793    0.016445350    0.000905959
      7        1           0.058480999   -0.002149336    0.010209410
      8        1          -0.002080989   -0.004786390   -0.008343725
      9        1           0.000888276    0.020563473    0.001200681
 -------------------------------------------------------------------
 Cartesian Forces:  Max     0.113130958 RMS     0.032310962
 FormGI is forming the generalized inverse of G from B-inverse, IUseBI=4.

 GradGradGradGradGradGradGradGradGradGradGradGradGradGradGradGradGradGrad
 Berny optimization.
 Internal  Forces:  Max     0.083214879 RMS     0.025814975
 Search for a saddle point.
 Step number   1 out of a maximum of  100
 All quantities printed in internal units (Hartrees-Bohrs-Radians)
 Swapping is turned off.
 Second derivative matrix not updated -- analytic derivatives used.
 ITU=  0
     Eigenvalues ---   -0.01108  -0.00365   0.00526   0.01094   0.01184
     Eigenvalues ---    0.06707   0.08581   0.09776   0.10052   0.10580
     Eigenvalues ---    0.11125   0.12491   0.14673   0.17175   0.27969
     Eigenvalues ---    0.36086   0.37973   0.38568   0.39779   0.40159
     Eigenvalues ---    0.40418
 Eigenvectors required to have negative eigenvalues:
                          A4        D11       D7        D12       D1
   1                   -0.45977  -0.44815  -0.38668  -0.32047   0.27305
                          D8        D5        A8        D4        D10
   1                   -0.25900  -0.21322   0.17999   0.16147   0.12426
 RFO step:  Lambda0=6.991669358D-02 Lambda=-7.66410659D-02.
 Linear search not attempted -- option 19 set.
 Maximum step size (   0.300) exceeded in Quadratic search.
    -- Step size scaled by   0.603
 Iteration  1 RMS(Cart)=  0.07947073 RMS(Int)=  0.05036225
 Iteration  2 RMS(Cart)=  0.03721901 RMS(Int)=  0.00769578
 Iteration  3 RMS(Cart)=  0.00143632 RMS(Int)=  0.00750705
 Iteration  4 RMS(Cart)=  0.00000834 RMS(Int)=  0.00750705
 Iteration  5 RMS(Cart)=  0.00000017 RMS(Int)=  0.00750705
 Variable       Old X    -DE/DX   Delta X   Delta X   Delta X     New X
                                 (Linear)    (Quad)   (Total)
    R1        2.84746   0.00724   0.00000   0.04693   0.04693   2.89438
    R2        2.02041   0.01103   0.00000   0.01654   0.01654   2.03695
    R3        2.03028   0.01062   0.00000   0.01625   0.01625   2.04653
    R4        2.74212   0.00834   0.00000   0.01983   0.01983   2.76195
    R5        2.04903   0.00292   0.00000   0.00826   0.00826   2.05729
    R6        2.24051  -0.02687   0.00000  -0.05583  -0.05583   2.18468
    R7        2.02103   0.00868   0.00000   0.01022   0.01022   2.03125
    R8        2.03726   0.00404   0.00000   0.00616   0.00616   2.04342
    A1        2.07285  -0.00351   0.00000   0.00025  -0.00885   2.06400
    A2        2.16183   0.00075   0.00000  -0.03703  -0.04607   2.11577
    A3        2.02957   0.00175   0.00000  -0.00881  -0.01888   2.01069
    A4        1.93450  -0.08039   0.00000   0.12340   0.11972   2.05422
    A5        2.08308   0.01288   0.00000   0.01605   0.01008   2.09317
    A6        1.50603   0.08321   0.00000   0.13233   0.14212   1.64815
    A7        2.03196   0.02938   0.00000  -0.00515  -0.01846   2.01349
    A8        2.05761  -0.01341   0.00000  -0.16157  -0.17301   1.88460
    A9        1.78536  -0.01368   0.00000  -0.12451  -0.13802   1.64733
   A10        2.13673  -0.00614   0.00000   0.00435  -0.00596   2.13077
   A11        2.05714   0.00864   0.00000   0.03221   0.02190   2.07903
   A12        2.06469  -0.00047   0.00000   0.01869   0.00837   2.07307
    D1        0.93355   0.01759   0.00000  -0.07678  -0.07229   0.86126
    D2       -2.91504  -0.02207   0.00000   0.09628   0.10017  -2.81487
    D3       -1.13439   0.00960   0.00000   0.02840   0.02383  -1.11056
    D4       -1.99215   0.02311   0.00000   0.18068   0.18263  -1.80952
    D5        0.44244  -0.01655   0.00000   0.35373   0.35509   0.79753
    D6        2.22309   0.01513   0.00000   0.28585   0.27875   2.50184
    D7       -0.88613  -0.03290   0.00000   0.28613   0.29189  -0.59424
    D8        2.49632  -0.04270   0.00000   0.01767   0.02359   2.51991
    D9        2.93986   0.01098   0.00000   0.11139   0.11798   3.05784
   D10        0.03912   0.00118   0.00000  -0.15707  -0.15032  -0.11119
   D11        0.80809   0.01571   0.00000   0.44628   0.43369   1.24178
   D12       -2.09265   0.00591   0.00000   0.17782   0.16539  -1.92726
         Item               Value     Threshold  Converged?
 Maximum Force            0.083215     0.000450     NO 
 RMS     Force            0.025815     0.000300     NO 
 Maximum Displacement     0.354402     0.001800     NO 
 RMS     Displacement     0.107737     0.001200     NO 
 Predicted change in Energy=-1.072176D-03
 GradGradGradGradGradGradGradGradGradGradGradGradGradGradGradGradGradGrad

                          Input orientation:                          
 ---------------------------------------------------------------------
 Center     Atomic      Atomic             Coordinates (Angstroms)
 Number     Number       Type             X           Y           Z
 ---------------------------------------------------------------------
      1          6           0       -2.625046    0.250317    1.425101
      2          6           0       -1.255497   -0.346474    1.762894
      3          6           0       -0.139794   -0.033875    0.872027
      4          1           0       -0.985345   -0.533039    2.800881
      5          1           0       -2.993278    0.144749    0.417557
      6          1           0       -3.019619    1.096373    1.974044
      7          1           0       -1.580443   -1.437008    1.558743
      8          1           0       -0.273232    0.094217   -0.186833
      9          1           0        0.847942    0.097795    1.291935
 ---------------------------------------------------------------------
                    Distance matrix (angstroms):
                    1          2          3          4          5
     1  C    0.000000
     2  C    1.531642   0.000000
     3  C    2.561861   1.461559   0.000000
     4  H    2.279263   1.088672   2.164394   0.000000
     5  H    1.077907   2.251913   2.894965   3.189268   0.000000
     6  H    1.082976   2.288781   3.284097   2.734395   1.824537
     7  H    1.989001   1.156085   2.125049   1.647485   2.408395
     8  H    2.855473   2.227215   1.074894   3.134803   2.786843
     9  H    3.478885   2.200826   1.081334   2.456789   3.939761
                    6          7          8          9
     6  H    0.000000
     7  H    2.943081   0.000000
     8  H    3.635430   2.664674   0.000000
     9  H    4.052217   2.885110   1.855747   0.000000
 Stoichiometry    C3H6
 Framework group  C1[X(C3H6)]
 Deg. of freedom    21
 Full point group                 C1      NOp   1
 Largest Abelian subgroup         C1      NOp   1
 Largest concise Abelian subgroup C1      NOp   1
                         Standard orientation:                         
 ---------------------------------------------------------------------
 Center     Atomic      Atomic             Coordinates (Angstroms)
 Number     Number       Type             X           Y           Z
 ---------------------------------------------------------------------
      1          6           0       -1.308722   -0.199778   -0.048097
      2          6           0        0.042390    0.512188    0.068212
      3          6           0        1.251180   -0.298747   -0.063578
      4          1           0        0.139271    1.548831   -0.249893
      5          1           0       -1.467749   -1.091359    0.536435
      6          1           0       -1.906882   -0.125405   -0.947826
      7          1           0       -0.090989    0.774866    1.186131
      8          1           0        1.299077   -1.313469    0.287765
      9          1           0        2.118185    0.124562   -0.551832
 ---------------------------------------------------------------------
 Rotational constants (GHZ):          36.4079957           9.2507055           8.1307593
 Standard basis: 6-31G(d,p) (6D, 7F)
 There are    75 symmetry adapted cartesian basis functions of A   symmetry.
 There are    75 symmetry adapted basis functions of A   symmetry.
    75 basis functions,   126 primitive gaussians,    75 cartesian basis functions
    12 alpha electrons       12 beta electrons
       nuclear repulsion energy        69.0645044779 Hartrees.
 NAtoms=    9 NActive=    9 NUniq=    9 SFac= 1.00D+00 NAtFMM=   60 NAOKFM=F Big=F
 Integral buffers will be    131072 words long.
 Raffenetti 2 integral format.
 Two-electron integral symmetry is turned on.
 One-electron integrals computed using PRISM.
 NBasis=    75 RedAO= T EigKep=  6.41D-03  NBF=    75
 NBsUse=    75 1.00D-06 EigRej= -1.00D+00 NBFU=    75
 Initial guess from the checkpoint file:  "/scratch/brown/zhao922/pyGSM/new-benchmarking/R1-3/TS-folder/Gau-220522.chk"
 B after Tr=    -0.000000   -0.000000    0.000000
         Rot=    0.999910    0.006587   -0.005495    0.010331 Ang=   1.54 deg.
 ExpMin= 1.61D-01 ExpMax= 3.05D+03 ExpMxC= 4.57D+02 IAcc=3 IRadAn=         5 AccDes= 0.00D+00
 Harris functional with IExCor=  402 and IRadAn=       5 diagonalized for initial guess.
 HarFok:  IExCor=  402 AccDes= 0.00D+00 IRadAn=         5 IDoV= 1 UseB2=F ITyADJ=14
 ICtDFT=  3500011 ScaDFX=  1.000000  1.000000  1.000000  1.000000
 FoFCou: FMM=F IPFlag=           0 FMFlag=      100000 FMFlg1=           0
         NFxFlg=           0 DoJE=T BraDBF=F KetDBF=T FulRan=T
         wScrn=  0.000000 ICntrl=       500 IOpCl=  0 I1Cent=   200000004 NGrid=           0
         NMat0=    1 NMatS0=      1 NMatT0=    0 NMatD0=    1 NMtDS0=    0 NMtDT0=    0
 Petite list used in FoFCou.
 Keep R1 ints in memory in canonical form, NReq=25608259.
 Requested convergence on RMS density matrix=1.00D-08 within 128 cycles.
 Requested convergence on MAX density matrix=1.00D-06.
 Requested convergence on             energy=1.00D-06.
 No special actions if energy rises.
 Integral accuracy reduced to 1.0D-05 until final iterations.
 Initial convergence to 1.0D-05 achieved.  Increase integral accuracy.
 SCF Done:  E(RB3LYP) =  -117.735778665     A.U. after   15 cycles
            NFock= 15  Conv=0.77D-08     -V/T= 2.0099
 DoSCS=F DFT=T ScalE2(SS,OS)=  1.000000  1.000000
 Range of M.O.s used for correlation:     1    75
 NBasis=    75 NAE=    12 NBE=    12 NFC=     0 NFV=     0
 NROrb=     75 NOA=    12 NOB=    12 NVA=    63 NVB=    63

 **** Warning!!: The smallest alpha delta epsilon is  0.43167015D-01

 Symmetrizing basis deriv contribution to polar:
 IMax=3 JMax=2 DiffMx= 0.00D+00
 G2DrvN: will do    10 centers at a time, making    1 passes.
 Calling FoFCou, ICntrl=  3107 FMM=F I1Cent=   0 AccDes= 0.00D+00.
 End of G2Drv F.D. properties file   721 does not exist.
 End of G2Drv F.D. properties file   722 does not exist.
 End of G2Drv F.D. properties file   788 does not exist.
          IDoAtm=111111111
          Differentiating once with respect to electric field.
                with respect to dipole field.
          Differentiating once with respect to nuclear coordinates.
 Keep R1 ints in memory in canonical form, NReq=25532597.
          There are    30 degrees of freedom in the 1st order CPHF.  IDoFFX=6 NUNeed=     3.
     27 vectors produced by pass  0 Test12= 2.52D-15 3.33D-09 XBig12= 2.41D+03 4.87D+01.
 AX will form    27 AO Fock derivatives at one time.
     27 vectors produced by pass  1 Test12= 2.52D-15 3.33D-09 XBig12= 5.48D+02 6.49D+00.
     27 vectors produced by pass  2 Test12= 2.52D-15 3.33D-09 XBig12= 8.71D+00 6.59D-01.
     27 vectors produced by pass  3 Test12= 2.52D-15 3.33D-09 XBig12= 1.16D-02 1.66D-02.
     27 vectors produced by pass  4 Test12= 2.52D-15 3.33D-09 XBig12= 6.83D-06 5.65D-04.
     11 vectors produced by pass  5 Test12= 2.52D-15 3.33D-09 XBig12= 3.81D-09 9.22D-06.
      2 vectors produced by pass  6 Test12= 2.52D-15 3.33D-09 XBig12= 1.40D-12 2.01D-07.
      1 vectors produced by pass  7 Test12= 2.52D-15 3.33D-09 XBig12= 5.45D-16 3.94D-09.
 InvSVY:  IOpt=1 It=  1 EMax= 3.55D-14
 Solved reduced A of dimension   149 with    30 vectors.
 Isotropic polarizability for W=    0.000000       45.12 Bohr**3.
 End of Minotr F.D. properties file   721 does not exist.
 End of Minotr F.D. properties file   722 does not exist.
 End of Minotr F.D. properties file   788 does not exist.
 Calling FoFJK, ICntrl=    100127 FMM=F ISym2X=0 I1Cent= 0 IOpClX= 0 NMat=1 NMatS=1 NMatT=0.
 ***** Axes restored to original set *****
 -------------------------------------------------------------------
 Center     Atomic                   Forces (Hartrees/Bohr)
 Number     Number              X              Y              Z
 -------------------------------------------------------------------
      1        6           0.025343363    0.045136388    0.011359661
      2        6          -0.044007301   -0.115210016   -0.011436551
      3        6          -0.007087246    0.022751648    0.005075489
      4        1          -0.001178841    0.020693343    0.006364150
      5        1          -0.003448183   -0.006126538   -0.004169739
      6        1           0.004858446    0.011760387   -0.004281061
      7        1           0.025900499    0.006842946    0.002941049
      8        1          -0.001645356   -0.003066663   -0.005493522
      9        1           0.001264619    0.017218506   -0.000359476
 -------------------------------------------------------------------
 Cartesian Forces:  Max     0.115210016 RMS     0.027572798
 FormGI is forming the generalized inverse of G from B-inverse, IUseBI=4.

 GradGradGradGradGradGradGradGradGradGradGradGradGradGradGradGradGradGrad
 Berny optimization.
 Internal  Forces:  Max     0.059686382 RMS     0.018199096
 Search for a saddle point.
 Step number   2 out of a maximum of  100
 All quantities printed in internal units (Hartrees-Bohrs-Radians)
 Swapping is turned off.
 Second derivative matrix not updated -- analytic derivatives used.
 ITU=  0  0
     Eigenvalues ---   -0.01409  -0.00124   0.00653   0.01115   0.01576
     Eigenvalues ---    0.06361   0.09034   0.09689   0.10216   0.10896
     Eigenvalues ---    0.11539   0.12544   0.16136   0.20060   0.26757
     Eigenvalues ---    0.34957   0.36288   0.36790   0.37334   0.38164
     Eigenvalues ---    0.38968
 Eigenvectors required to have negative eigenvalues:
                          D5        D7        A4        D11       D8
   1                   -0.44376  -0.39280  -0.35076  -0.32299  -0.32186
                          D2        D6        D12       A8        D4
   1                   -0.28042  -0.26121  -0.25205   0.16292  -0.11188
 RFO step:  Lambda0=4.779769642D-02 Lambda=-6.50092419D-02.
 Linear search not attempted -- option 19 set.
 Iteration  1 RMS(Cart)=  0.11632251 RMS(Int)=  0.15352040
 Iteration  2 RMS(Cart)=  0.07652420 RMS(Int)=  0.08246792
 Iteration  3 RMS(Cart)=  0.05439354 RMS(Int)=  0.02141538
 Iteration  4 RMS(Cart)=  0.01849004 RMS(Int)=  0.00542245
 Iteration  5 RMS(Cart)=  0.00052163 RMS(Int)=  0.00539081
 Iteration  6 RMS(Cart)=  0.00000563 RMS(Int)=  0.00539081
 Iteration  7 RMS(Cart)=  0.00000010 RMS(Int)=  0.00539081
 Variable       Old X    -DE/DX   Delta X   Delta X   Delta X     New X
                                 (Linear)    (Quad)   (Total)
    R1        2.89438  -0.00478   0.00000  -0.01359  -0.01359   2.88080
    R2        2.03695   0.00568   0.00000   0.01548   0.01548   2.05243
    R3        2.04653   0.00525   0.00000   0.02004   0.02004   2.06657
    R4        2.76195   0.00267   0.00000  -0.02331  -0.02331   2.73863
    R5        2.05729   0.00223   0.00000   0.01175   0.01175   2.06904
    R6        2.18468  -0.01425   0.00000  -0.04822  -0.04822   2.13647
    R7        2.03125   0.00525   0.00000   0.01407   0.01407   2.04533
    R8        2.04342   0.00311   0.00000   0.01391   0.01391   2.05733
    A1        2.06400  -0.00110   0.00000   0.01289  -0.00064   2.06336
    A2        2.11577  -0.00231   0.00000  -0.11180  -0.12577   1.99000
    A3        2.01069   0.00153   0.00000  -0.02987  -0.04865   1.96204
    A4        2.05422  -0.05969   0.00000  -0.04001  -0.03988   2.01434
    A5        2.09317   0.01169   0.00000   0.00910   0.00882   2.10198
    A6        1.64815   0.04630   0.00000   0.11788   0.11756   1.76571
    A7        2.01349   0.02543   0.00000   0.04513   0.04528   2.05878
    A8        1.88460   0.00319   0.00000  -0.07984  -0.07842   1.80618
    A9        1.64733  -0.00376   0.00000  -0.06729  -0.06712   1.58021
   A10        2.13077  -0.00483   0.00000  -0.02378  -0.02965   2.10112
   A11        2.07903   0.00625   0.00000   0.03728   0.03141   2.11044
   A12        2.07307  -0.00159   0.00000  -0.01830  -0.02432   2.04875
    D1        0.86126   0.02042   0.00000   0.33026   0.33355   1.19481
    D2       -2.81487  -0.01775   0.00000   0.37210   0.37560  -2.43927
    D3       -1.11056   0.00708   0.00000   0.36488   0.36955  -0.74102
    D4       -1.80952   0.02449   0.00000   0.64416   0.63981  -1.16971
    D5        0.79753  -0.01367   0.00000   0.68601   0.68186   1.47939
    D6        2.50184   0.01115   0.00000   0.67878   0.67581  -3.10554
    D7       -0.59424  -0.02512   0.00000   0.21171   0.21112  -0.38312
    D8        2.51991  -0.03294   0.00000   0.00426   0.00445   2.52435
    D9        3.05784   0.01396   0.00000   0.18117   0.18036  -3.04498
   D10       -0.11119   0.00614   0.00000  -0.02628  -0.02631  -0.13751
   D11        1.24178   0.00511   0.00000   0.28669   0.28693   1.52871
   D12       -1.92726  -0.00271   0.00000   0.07924   0.08025  -1.84701
         Item               Value     Threshold  Converged?
 Maximum Force            0.059686     0.000450     NO 
 RMS     Force            0.018199     0.000300     NO 
 Maximum Displacement     0.661439     0.001800     NO 
 RMS     Displacement     0.242744     0.001200     NO 
 Predicted change in Energy=-2.099681D-02
 GradGradGradGradGradGradGradGradGradGradGradGradGradGradGradGradGradGrad

                          Input orientation:                          
 ---------------------------------------------------------------------
 Center     Atomic      Atomic             Coordinates (Angstroms)
 Number     Number       Type             X           Y           Z
 ---------------------------------------------------------------------
      1          6           0       -2.635040    0.231176    1.466505
      2          6           0       -1.286457   -0.400930    1.791646
      3          6           0       -0.194806   -0.021599    0.917200
      4          1           0       -1.043864   -0.692660    2.818693
      5          1           0       -3.135577   -0.069175    0.550609
      6          1           0       -2.669601    1.312616    1.625279
      7          1           0       -1.479487   -1.481043    1.519094
      8          1           0       -0.395756    0.358597   -0.076042
      9          1           0        0.816275    0.096073    1.303364
 ---------------------------------------------------------------------
                    Distance matrix (angstroms):
                    1          2          3          4          5
     1  C    0.000000
     2  C    1.524451   0.000000
     3  C    2.514035   1.449223   0.000000
     4  H    2.283359   1.094890   2.187897   0.000000
     5  H    1.086101   2.251550   2.963913   3.147729   0.000000
     6  H    1.093579   2.208395   2.899330   2.844010   1.811463
     7  H    2.066341   1.130570   2.035351   1.581225   2.382009
     8  H    2.722147   2.204198   1.082341   3.147170   2.842938
     9  H    3.457809   2.215155   1.088694   2.525557   4.026298
                    6          7          8          9
     6  H    0.000000
     7  H    3.038450   0.000000
     8  H    2.995833   2.665184   0.000000
     9  H    3.706067   2.793628   1.854912   0.000000
 Stoichiometry    C3H6
 Framework group  C1[X(C3H6)]
 Deg. of freedom    21
 Full point group                 C1      NOp   1
 Largest Abelian subgroup         C1      NOp   1
 Largest concise Abelian subgroup C1      NOp   1
                         Standard orientation:                         
 ---------------------------------------------------------------------
 Center     Atomic      Atomic             Coordinates (Angstroms)
 Number     Number       Type             X           Y           Z
 ---------------------------------------------------------------------
      1          6           0       -1.302976   -0.166553   -0.056557
      2          6           0        0.045266    0.543169   -0.006654
      3          6           0        1.204965   -0.325637    0.016214
      4          1           0        0.161682    1.543526   -0.436207
      5          1           0       -1.620125   -0.728680    0.816966
      6          1           0       -1.487552   -0.706426   -0.989502
      7          1           0        0.023576    0.981452    1.035280
      8          1           0        1.113939   -1.351584    0.348793
      9          1           0        2.124950   -0.044161   -0.493348
 ---------------------------------------------------------------------
 Rotational constants (GHZ):          34.3613612           9.7407033           8.4334567
 Standard basis: 6-31G(d,p) (6D, 7F)
 There are    75 symmetry adapted cartesian basis functions of A   symmetry.
 There are    75 symmetry adapted basis functions of A   symmetry.
    75 basis functions,   126 primitive gaussians,    75 cartesian basis functions
    12 alpha electrons       12 beta electrons
       nuclear repulsion energy        69.5804010085 Hartrees.
 NAtoms=    9 NActive=    9 NUniq=    9 SFac= 1.00D+00 NAtFMM=   60 NAOKFM=F Big=F
 Integral buffers will be    131072 words long.
 Raffenetti 2 integral format.
 Two-electron integral symmetry is turned on.
 One-electron integrals computed using PRISM.
 NBasis=    75 RedAO= T EigKep=  6.10D-03  NBF=    75
 NBsUse=    75 1.00D-06 EigRej= -1.00D+00 NBFU=    75
 Initial guess from the checkpoint file:  "/scratch/brown/zhao922/pyGSM/new-benchmarking/R1-3/TS-folder/Gau-220522.chk"
 B after Tr=     0.000000    0.000000   -0.000000
         Rot=    0.995136    0.096919    0.013568    0.011300 Ang=  11.31 deg.
 ExpMin= 1.61D-01 ExpMax= 3.05D+03 ExpMxC= 4.57D+02 IAcc=3 IRadAn=         5 AccDes= 0.00D+00
 Harris functional with IExCor=  402 and IRadAn=       5 diagonalized for initial guess.
 HarFok:  IExCor=  402 AccDes= 0.00D+00 IRadAn=         5 IDoV= 1 UseB2=F ITyADJ=14
 ICtDFT=  3500011 ScaDFX=  1.000000  1.000000  1.000000  1.000000
 FoFCou: FMM=F IPFlag=           0 FMFlag=      100000 FMFlg1=           0
         NFxFlg=           0 DoJE=T BraDBF=F KetDBF=T FulRan=T
         wScrn=  0.000000 ICntrl=       500 IOpCl=  0 I1Cent=   200000004 NGrid=           0
         NMat0=    1 NMatS0=      1 NMatT0=    0 NMatD0=    1 NMtDS0=    0 NMtDT0=    0
 Petite list used in FoFCou.
 Keep R1 ints in memory in canonical form, NReq=25608259.
 Requested convergence on RMS density matrix=1.00D-08 within 128 cycles.
 Requested convergence on MAX density matrix=1.00D-06.
 Requested convergence on             energy=1.00D-06.
 No special actions if energy rises.
 Integral accuracy reduced to 1.0D-05 until final iterations.
 Initial convergence to 1.0D-05 achieved.  Increase integral accuracy.
 SCF Done:  E(RB3LYP) =  -117.753776957     A.U. after   15 cycles
            NFock= 15  Conv=0.28D-08     -V/T= 2.0101
 DoSCS=F DFT=T ScalE2(SS,OS)=  1.000000  1.000000
 Range of M.O.s used for correlation:     1    75
 NBasis=    75 NAE=    12 NBE=    12 NFC=     0 NFV=     0
 NROrb=     75 NOA=    12 NOB=    12 NVA=    63 NVB=    63

 **** Warning!!: The smallest alpha delta epsilon is  0.67486926D-01

 Symmetrizing basis deriv contribution to polar:
 IMax=3 JMax=2 DiffMx= 0.00D+00
 G2DrvN: will do    10 centers at a time, making    1 passes.
 Calling FoFCou, ICntrl=  3107 FMM=F I1Cent=   0 AccDes= 0.00D+00.
 End of G2Drv F.D. properties file   721 does not exist.
 End of G2Drv F.D. properties file   722 does not exist.
 End of G2Drv F.D. properties file   788 does not exist.
          IDoAtm=111111111
          Differentiating once with respect to electric field.
                with respect to dipole field.
          Differentiating once with respect to nuclear coordinates.
 Keep R1 ints in memory in canonical form, NReq=25532590.
          There are    30 degrees of freedom in the 1st order CPHF.  IDoFFX=6 NUNeed=     3.
     27 vectors produced by pass  0 Test12= 2.52D-15 3.33D-09 XBig12= 1.04D+03 3.18D+01.
 AX will form    27 AO Fock derivatives at one time.
     27 vectors produced by pass  1 Test12= 2.52D-15 3.33D-09 XBig12= 2.42D+02 4.31D+00.
     27 vectors produced by pass  2 Test12= 2.52D-15 3.33D-09 XBig12= 3.64D+00 4.48D-01.
     27 vectors produced by pass  3 Test12= 2.52D-15 3.33D-09 XBig12= 5.89D-03 1.82D-02.
     27 vectors produced by pass  4 Test12= 2.52D-15 3.33D-09 XBig12= 3.30D-06 3.67D-04.
     11 vectors produced by pass  5 Test12= 2.52D-15 3.33D-09 XBig12= 1.65D-09 7.46D-06.
      3 vectors produced by pass  6 Test12= 2.52D-15 3.33D-09 XBig12= 6.43D-13 1.43D-07.
 InvSVY:  IOpt=1 It=  1 EMax= 7.11D-15
 Solved reduced A of dimension   149 with    30 vectors.
 Isotropic polarizability for W=    0.000000       43.76 Bohr**3.
 End of Minotr F.D. properties file   721 does not exist.
 End of Minotr F.D. properties file   722 does not exist.
 End of Minotr F.D. properties file   788 does not exist.
 Calling FoFJK, ICntrl=    100127 FMM=F ISym2X=0 I1Cent= 0 IOpClX= 0 NMat=1 NMatS=1 NMatT=0.
 ***** Axes restored to original set *****
 -------------------------------------------------------------------
 Center     Atomic                   Forces (Hartrees/Bohr)
 Number     Number              X              Y              Z
 -------------------------------------------------------------------
      1        6           0.029519538    0.034842706    0.011231906
      2        6          -0.028736737   -0.080804012   -0.019454560
      3        6           0.001967886    0.020708256    0.009577558
      4        1           0.002237566    0.020578803    0.006327432
      5        1          -0.004607055   -0.007035819    0.002842031
      6        1           0.000297293    0.001409201   -0.004141941
      7        1           0.001617589    0.002995818   -0.004199514
      8        1          -0.000647376   -0.006783214   -0.003865115
      9        1          -0.001648703    0.014088262    0.001682202
 -------------------------------------------------------------------
 Cartesian Forces:  Max     0.080804012 RMS     0.020485555
 FormGI is forming the generalized inverse of G from B-inverse, IUseBI=4.

 GradGradGradGradGradGradGradGradGradGradGradGradGradGradGradGradGradGrad
 Berny optimization.
 Internal  Forces:  Max     0.026386582 RMS     0.010498643
 Search for a saddle point.
 Step number   3 out of a maximum of  100
 All quantities printed in internal units (Hartrees-Bohrs-Radians)
 Swapping is turned off.
 Second derivative matrix not updated -- analytic derivatives used.
 ITU=  0  0  0
     Eigenvalues ---   -0.01907   0.00134   0.01350   0.01724   0.02536
     Eigenvalues ---    0.05664   0.09180   0.10300   0.10617   0.11613
     Eigenvalues ---    0.12546   0.13512   0.15099   0.24807   0.28204
     Eigenvalues ---    0.33949   0.34506   0.35367   0.36212   0.37183
     Eigenvalues ---    0.37674
 Eigenvectors required to have negative eigenvalues:
                          D5        D7        D2        D8        A4
   1                   -0.41609  -0.36764  -0.36345  -0.35118  -0.32483
                          D11       D12       D6        D3        A8
   1                   -0.29854  -0.28209  -0.21557  -0.16294   0.13637
 RFO step:  Lambda0=2.702787040D-02 Lambda=-3.50532596D-02.
 Linear search not attempted -- option 19 set.
 Iteration  1 RMS(Cart)=  0.12933279 RMS(Int)=  0.08571267
 Iteration  2 RMS(Cart)=  0.08203650 RMS(Int)=  0.00836842
 Iteration  3 RMS(Cart)=  0.00860664 RMS(Int)=  0.00164240
 Iteration  4 RMS(Cart)=  0.00011866 RMS(Int)=  0.00163899
 Iteration  5 RMS(Cart)=  0.00000006 RMS(Int)=  0.00163899
 Variable       Old X    -DE/DX   Delta X   Delta X   Delta X     New X
                                 (Linear)    (Quad)   (Total)
    R1        2.88080  -0.01231   0.00000  -0.08783  -0.08783   2.79296
    R2        2.05243   0.00167   0.00000   0.00301   0.00301   2.05544
    R3        2.06657   0.00078   0.00000   0.00086   0.00086   2.06742
    R4        2.73863   0.00262   0.00000   0.01419   0.01419   2.75282
    R5        2.06904   0.00095   0.00000   0.01587   0.01587   2.08491
    R6        2.13647  -0.00213   0.00000  -0.00443  -0.00443   2.13204
    R7        2.04533   0.00128   0.00000   0.00653   0.00653   2.05186
    R8        2.05733   0.00059   0.00000   0.00087   0.00087   2.05820
    A1        2.06336  -0.00040   0.00000   0.03983   0.03928   2.10263
    A2        1.99000   0.00217   0.00000  -0.00285  -0.00343   1.98658
    A3        1.96204   0.00022   0.00000   0.00548   0.00474   1.96679
    A4        2.01434  -0.02639   0.00000   0.09554   0.09262   2.10696
    A5        2.10198   0.00337   0.00000  -0.06870  -0.06826   2.03372
    A6        1.76571   0.01733   0.00000   0.06208   0.05886   1.82457
    A7        2.05878   0.00820   0.00000  -0.07142  -0.07170   1.98707
    A8        1.80618   0.01106   0.00000   0.00894   0.00341   1.80959
    A9        1.58021   0.00422   0.00000   0.00710   0.00931   1.58951
   A10        2.10112  -0.00206   0.00000  -0.00412  -0.00547   2.09565
   A11        2.11044   0.00203   0.00000  -0.00906  -0.01041   2.10003
   A12        2.04875  -0.00070   0.00000  -0.00614  -0.00757   2.04118
    D1        1.19481   0.01926   0.00000   0.47495   0.47679   1.67160
    D2       -2.43927  -0.01014   0.00000   0.36269   0.36386  -2.07541
    D3       -0.74102   0.00651   0.00000   0.39065   0.38805  -0.35297
    D4       -1.16971   0.01674   0.00000   0.42240   0.42396  -0.74575
    D5        1.47939  -0.01266   0.00000   0.31014   0.31104   1.79043
    D6       -3.10554   0.00399   0.00000   0.33810   0.33522  -2.77032
    D7       -0.38312  -0.01978   0.00000   0.16375   0.16304  -0.22008
    D8        2.52435  -0.02353   0.00000   0.06560   0.06515   2.58951
    D9       -3.04498   0.00996   0.00000   0.27387   0.27378  -2.77120
   D10       -0.13751   0.00622   0.00000   0.17573   0.17590   0.03839
   D11        1.52871  -0.00389   0.00000   0.28302   0.28343   1.81214
   D12       -1.84701  -0.00764   0.00000   0.18488   0.18555  -1.66145
         Item               Value     Threshold  Converged?
 Maximum Force            0.026387     0.000450     NO 
 RMS     Force            0.010499     0.000300     NO 
 Maximum Displacement     0.564704     0.001800     NO 
 RMS     Displacement     0.204754     0.001200     NO 
 Predicted change in Energy=-6.540055D-03
 GradGradGradGradGradGradGradGradGradGradGradGradGradGradGradGradGradGrad

                          Input orientation:                          
 ---------------------------------------------------------------------
 Center     Atomic      Atomic             Coordinates (Angstroms)
 Number     Number       Type             X           Y           Z
 ---------------------------------------------------------------------
      1          6           0       -2.628458    0.241093    1.492581
      2          6           0       -1.313497   -0.395553    1.716097
      3          6           0       -0.154893   -0.008762    0.922313
      4          1           0       -1.069827   -0.670830    2.756332
      5          1           0       -3.367711   -0.231082    0.849438
      6          1           0       -2.576421    1.324667    1.350922
      7          1           0       -1.473450   -1.478855    1.444494
      8          1           0       -0.284230    0.595469    0.029490
      9          1           0        0.844174   -0.043093    1.354683
 ---------------------------------------------------------------------
                    Distance matrix (angstroms):
                    1          2          3          4          5
     1  C    0.000000
     2  C    1.477972   0.000000
     3  C    2.550717   1.456730   0.000000
     4  H    2.204087   1.103286   2.153849   0.000000
     5  H    1.087694   2.235608   3.221325   3.018260   0.000000
     6  H    1.094032   2.165060   2.797416   2.868276   1.816034
     7  H    2.072336   1.128227   2.042654   1.592713   2.345049
     8  H    2.785968   2.210465   1.085797   3.107465   3.295960
     9  H    3.486969   2.215940   1.089155   2.453992   4.246244
                    6          7          8          9
     6  H    0.000000
     7  H    3.014139   0.000000
     8  H    2.744458   2.778362   0.000000
     9  H    3.683919   2.727794   1.853968   0.000000
 Stoichiometry    C3H6
 Framework group  C1[X(C3H6)]
 Deg. of freedom    21
 Full point group                 C1      NOp   1
 Largest Abelian subgroup         C1      NOp   1
 Largest concise Abelian subgroup C1      NOp   1
                         Standard orientation:                         
 ---------------------------------------------------------------------
 Center     Atomic      Atomic             Coordinates (Angstroms)
 Number     Number       Type             X           Y           Z
 ---------------------------------------------------------------------
      1          6           0       -1.301559   -0.179877   -0.081143
      2          6           0        0.015244    0.489999   -0.039977
      3          6           0        1.242462   -0.287233    0.069147
      4          1           0        0.120404    1.407420   -0.643733
      5          1           0       -1.888463   -0.298965    0.826844
      6          1           0       -1.325472   -1.068632   -0.718677
      7          1           0       -0.003809    1.093851    0.912860
      8          1           0        1.197867   -1.341379    0.325554
      9          1           0        2.162587    0.070374   -0.391012
 ---------------------------------------------------------------------
 Rotational constants (GHZ):          37.8196526           9.4845946           8.2926170
 Standard basis: 6-31G(d,p) (6D, 7F)
 There are    75 symmetry adapted cartesian basis functions of A   symmetry.
 There are    75 symmetry adapted basis functions of A   symmetry.
    75 basis functions,   126 primitive gaussians,    75 cartesian basis functions
    12 alpha electrons       12 beta electrons
       nuclear repulsion energy        69.7783766502 Hartrees.
 NAtoms=    9 NActive=    9 NUniq=    9 SFac= 1.00D+00 NAtFMM=   60 NAOKFM=F Big=F
 Integral buffers will be    131072 words long.
 Raffenetti 2 integral format.
 Two-electron integral symmetry is turned on.
 One-electron integrals computed using PRISM.
 NBasis=    75 RedAO= T EigKep=  5.92D-03  NBF=    75
 NBsUse=    75 1.00D-06 EigRej= -1.00D+00 NBFU=    75
 Initial guess from the checkpoint file:  "/scratch/brown/zhao922/pyGSM/new-benchmarking/R1-3/TS-folder/Gau-220522.chk"
 B after Tr=    -0.000000    0.000000   -0.000000
         Rot=    0.997304    0.072007    0.010334   -0.009661 Ang=   8.42 deg.
 ExpMin= 1.61D-01 ExpMax= 3.05D+03 ExpMxC= 4.57D+02 IAcc=3 IRadAn=         5 AccDes= 0.00D+00
 Harris functional with IExCor=  402 and IRadAn=       5 diagonalized for initial guess.
 HarFok:  IExCor=  402 AccDes= 0.00D+00 IRadAn=         5 IDoV= 1 UseB2=F ITyADJ=14
 ICtDFT=  3500011 ScaDFX=  1.000000  1.000000  1.000000  1.000000
 FoFCou: FMM=F IPFlag=           0 FMFlag=      100000 FMFlg1=           0
         NFxFlg=           0 DoJE=T BraDBF=F KetDBF=T FulRan=T
         wScrn=  0.000000 ICntrl=       500 IOpCl=  0 I1Cent=   200000004 NGrid=           0
         NMat0=    1 NMatS0=      1 NMatT0=    0 NMatD0=    1 NMtDS0=    0 NMtDT0=    0
 Petite list used in FoFCou.
 Keep R1 ints in memory in canonical form, NReq=25608259.
 Requested convergence on RMS density matrix=1.00D-08 within 128 cycles.
 Requested convergence on MAX density matrix=1.00D-06.
 Requested convergence on             energy=1.00D-06.
 No special actions if energy rises.
 Integral accuracy reduced to 1.0D-05 until final iterations.
 Initial convergence to 1.0D-05 achieved.  Increase integral accuracy.
 SCF Done:  E(RB3LYP) =  -117.760424426     A.U. after   13 cycles
            NFock= 13  Conv=0.96D-08     -V/T= 2.0100
 DoSCS=F DFT=T ScalE2(SS,OS)=  1.000000  1.000000
 Range of M.O.s used for correlation:     1    75
 NBasis=    75 NAE=    12 NBE=    12 NFC=     0 NFV=     0
 NROrb=     75 NOA=    12 NOB=    12 NVA=    63 NVB=    63

 **** Warning!!: The smallest alpha delta epsilon is  0.69149233D-01

 Symmetrizing basis deriv contribution to polar:
 IMax=3 JMax=2 DiffMx= 0.00D+00
 G2DrvN: will do    10 centers at a time, making    1 passes.
 Calling FoFCou, ICntrl=  3107 FMM=F I1Cent=   0 AccDes= 0.00D+00.
 End of G2Drv F.D. properties file   721 does not exist.
 End of G2Drv F.D. properties file   722 does not exist.
 End of G2Drv F.D. properties file   788 does not exist.
          IDoAtm=111111111
          Differentiating once with respect to electric field.
                with respect to dipole field.
          Differentiating once with respect to nuclear coordinates.
 Keep R1 ints in memory in canonical form, NReq=25532590.
          There are    30 degrees of freedom in the 1st order CPHF.  IDoFFX=6 NUNeed=     3.
     27 vectors produced by pass  0 Test12= 2.52D-15 3.33D-09 XBig12= 1.01D+03 3.14D+01.
 AX will form    27 AO Fock derivatives at one time.
     27 vectors produced by pass  1 Test12= 2.52D-15 3.33D-09 XBig12= 2.23D+02 3.63D+00.
     27 vectors produced by pass  2 Test12= 2.52D-15 3.33D-09 XBig12= 3.03D+00 4.29D-01.
     27 vectors produced by pass  3 Test12= 2.52D-15 3.33D-09 XBig12= 5.31D-03 1.53D-02.
     27 vectors produced by pass  4 Test12= 2.52D-15 3.33D-09 XBig12= 3.34D-06 2.86D-04.
     11 vectors produced by pass  5 Test12= 2.52D-15 3.33D-09 XBig12= 1.23D-09 6.27D-06.
      2 vectors produced by pass  6 Test12= 2.52D-15 3.33D-09 XBig12= 3.76D-13 7.57D-08.
 InvSVY:  IOpt=1 It=  1 EMax= 1.07D-14
 Solved reduced A of dimension   148 with    30 vectors.
 Isotropic polarizability for W=    0.000000       43.80 Bohr**3.
 End of Minotr F.D. properties file   721 does not exist.
 End of Minotr F.D. properties file   722 does not exist.
 End of Minotr F.D. properties file   788 does not exist.
 Calling FoFJK, ICntrl=    100127 FMM=F ISym2X=0 I1Cent= 0 IOpClX= 0 NMat=1 NMatS=1 NMatT=0.
 ***** Axes restored to original set *****
 -------------------------------------------------------------------
 Center     Atomic                   Forces (Hartrees/Bohr)
 Number     Number              X              Y              Z
 -------------------------------------------------------------------
      1        6           0.014593728    0.026353671    0.000024870
      2        6          -0.011102291   -0.053691577   -0.012991793
      3        6           0.002193722    0.011672923    0.009270653
      4        1           0.002045011    0.012810720    0.003232085
      5        1          -0.002647582   -0.005166933    0.006690774
      6        1          -0.001969583   -0.000187943   -0.000648834
      7        1          -0.001390465    0.004028310   -0.005104575
      8        1          -0.000553469   -0.004502325   -0.003105825
      9        1          -0.001169071    0.008683153    0.002632645
 -------------------------------------------------------------------
 Cartesian Forces:  Max     0.053691577 RMS     0.013234395
 FormGI is forming the generalized inverse of G from B-inverse, IUseBI=4.

 GradGradGradGradGradGradGradGradGradGradGradGradGradGradGradGradGradGrad
 Berny optimization.
 Internal  Forces:  Max     0.013993823 RMS     0.005889751
 Search for a saddle point.
 Step number   4 out of a maximum of  100
 All quantities printed in internal units (Hartrees-Bohrs-Radians)
 Swapping is turned off.
 Second derivative matrix not updated -- analytic derivatives used.
 ITU=  0  0  0  0
     Eigenvalues ---   -0.01298  -0.00009   0.01506   0.02053   0.02722
     Eigenvalues ---    0.04388   0.08358   0.10041   0.10693   0.11826
     Eigenvalues ---    0.12956   0.14293   0.15704   0.26364   0.32029
     Eigenvalues ---    0.33456   0.34618   0.35366   0.35789   0.36495
     Eigenvalues ---    0.37338
 Eigenvectors required to have negative eigenvalues:
                          D2        D5        D8        D7        D12
   1                   -0.41364  -0.40033  -0.34137  -0.32450  -0.28545
                          D11       A4        D3        D6        D1
   1                   -0.26858  -0.24613  -0.24600  -0.23268  -0.18217
 RFO step:  Lambda0=9.581006791D-03 Lambda=-1.92863883D-02.
 Linear search not attempted -- option 19 set.
 Iteration  1 RMS(Cart)=  0.11577601 RMS(Int)=  0.07210286
 Iteration  2 RMS(Cart)=  0.06104792 RMS(Int)=  0.00874229
 Iteration  3 RMS(Cart)=  0.00823639 RMS(Int)=  0.00183572
 Iteration  4 RMS(Cart)=  0.00012242 RMS(Int)=  0.00183145
 Iteration  5 RMS(Cart)=  0.00000023 RMS(Int)=  0.00183145
 Variable       Old X    -DE/DX   Delta X   Delta X   Delta X     New X
                                 (Linear)    (Quad)   (Total)
    R1        2.79296  -0.00075   0.00000  -0.03496  -0.03496   2.75800
    R2        2.05544   0.00009   0.00000  -0.00265  -0.00265   2.05279
    R3        2.06742  -0.00020   0.00000  -0.00853  -0.00853   2.05889
    R4        2.75282  -0.00021   0.00000   0.00031   0.00031   2.75313
    R5        2.08491   0.00030   0.00000   0.01075   0.01075   2.09566
    R6        2.13204  -0.00244   0.00000  -0.02051  -0.02051   2.11153
    R7        2.05186   0.00011   0.00000   0.00165   0.00165   2.05351
    R8        2.05820  -0.00030   0.00000  -0.00433  -0.00433   2.05388
    A1        2.10263  -0.00184   0.00000   0.00019  -0.00404   2.09860
    A2        1.98658   0.00456   0.00000   0.06616   0.06189   2.04847
    A3        1.96679   0.00048   0.00000   0.04327   0.03834   2.00512
    A4        2.10696  -0.01152   0.00000   0.06201   0.05859   2.16555
    A5        2.03372  -0.00006   0.00000  -0.06493  -0.06656   1.96715
    A6        1.82457   0.00722   0.00000   0.02015   0.01749   1.84206
    A7        1.98707   0.00114   0.00000  -0.07321  -0.07469   1.91238
    A8        1.80959   0.00700   0.00000   0.03679   0.03453   1.84412
    A9        1.58951   0.00488   0.00000   0.06117   0.06359   1.65311
   A10        2.09565  -0.00027   0.00000   0.00989   0.00970   2.10535
   A11        2.10003  -0.00004   0.00000  -0.01756  -0.01775   2.08228
   A12        2.04118  -0.00028   0.00000  -0.00254  -0.00274   2.03845
    D1        1.67160   0.01371   0.00000   0.50445   0.50535   2.17695
    D2       -2.07541  -0.00401   0.00000   0.34450   0.34596  -1.72945
    D3       -0.35297   0.00560   0.00000   0.40493   0.40477   0.05180
    D4       -0.74575   0.00899   0.00000   0.33601   0.33544  -0.41031
    D5        1.79043  -0.00873   0.00000   0.17606   0.17605   1.96647
    D6       -2.77032   0.00088   0.00000   0.23648   0.23486  -2.53546
    D7       -0.22008  -0.01188   0.00000   0.04868   0.04821  -0.17187
    D8        2.58951  -0.01399   0.00000   0.01273   0.01230   2.60181
    D9       -2.77120   0.00563   0.00000   0.20360   0.20262  -2.56858
   D10        0.03839   0.00352   0.00000   0.16765   0.16671   0.20510
   D11        1.81214  -0.00359   0.00000   0.13881   0.14020   1.95235
   D12       -1.66145  -0.00570   0.00000   0.10286   0.10430  -1.55716
         Item               Value     Threshold  Converged?
 Maximum Force            0.013994     0.000450     NO 
 RMS     Force            0.005890     0.000300     NO 
 Maximum Displacement     0.629939     0.001800     NO 
 RMS     Displacement     0.174208     0.001200     NO 
 Predicted change in Energy=-7.073526D-03
 GradGradGradGradGradGradGradGradGradGradGradGradGradGradGradGradGradGrad

                          Input orientation:                          
 ---------------------------------------------------------------------
 Center     Atomic      Atomic             Coordinates (Angstroms)
 Number     Number       Type             X           Y           Z
 ---------------------------------------------------------------------
      1          6           0       -2.614643    0.259870    1.474074
      2          6           0       -1.323107   -0.402082    1.628385
      3          6           0       -0.109811    0.002803    0.930875
      4          1           0       -1.083948   -0.632765    2.686410
      5          1           0       -3.491132   -0.311923    1.182787
      6          1           0       -2.609429    1.295405    1.135410
      7          1           0       -1.496180   -1.467349    1.338950
      8          1           0       -0.150311    0.735539    0.129434
      9          1           0        0.854251   -0.146443    1.410023
 ---------------------------------------------------------------------
                    Distance matrix (angstroms):
                    1          2          3          4          5
     1  C    0.000000
     2  C    1.459471   0.000000
     3  C    2.575914   1.456894   0.000000
     4  H    2.146994   1.108977   2.105895   0.000000
     5  H    1.086291   2.215179   3.405267   2.856284   0.000000
     6  H    1.089520   2.186118   2.821479   2.906980   1.833889
     7  H    2.062160   1.117372   2.061527   1.637715   2.310678
     8  H    2.847323   2.217315   1.086669   3.046647   3.656202
     9  H    3.493196   2.203162   1.086864   2.371137   4.354466
                    6          7          8          9
     6  H    0.000000
     7  H    2.985559   0.000000
     8  H    2.715272   2.850791   0.000000
     9  H    3.761838   2.697105   1.851201   0.000000
 Stoichiometry    C3H6
 Framework group  C1[X(C3H6)]
 Deg. of freedom    21
 Full point group                 C1      NOp   1
 Largest Abelian subgroup         C1      NOp   1
 Largest concise Abelian subgroup C1      NOp   1
                         Standard orientation:                         
 ---------------------------------------------------------------------
 Center     Atomic      Atomic             Coordinates (Angstroms)
 Number     Number       Type             X           Y           Z
 ---------------------------------------------------------------------
      1          6           0       -1.296756   -0.210612   -0.084263
      2          6           0        0.002869    0.451342   -0.030866
      3          6           0        1.273501   -0.252570    0.081118
      4          1           0        0.096458    1.271296   -0.771639
      5          1           0       -2.073760    0.051189    0.628305
      6          1           0       -1.318497   -1.244587   -0.427011
      7          1           0       -0.043917    1.131924    0.854086
      8          1           0        1.299260   -1.318599    0.290326
      9          1           0        2.162773    0.179819   -0.370002
 ---------------------------------------------------------------------
 Rotational constants (GHZ):          41.1164306           9.2783709           8.1254050
 Standard basis: 6-31G(d,p) (6D, 7F)
 There are    75 symmetry adapted cartesian basis functions of A   symmetry.
 There are    75 symmetry adapted basis functions of A   symmetry.
    75 basis functions,   126 primitive gaussians,    75 cartesian basis functions
    12 alpha electrons       12 beta electrons
       nuclear repulsion energy        69.8678141187 Hartrees.
 NAtoms=    9 NActive=    9 NUniq=    9 SFac= 1.00D+00 NAtFMM=   60 NAOKFM=F Big=F
 Integral buffers will be    131072 words long.
 Raffenetti 2 integral format.
 Two-electron integral symmetry is turned on.
 One-electron integrals computed using PRISM.
 NBasis=    75 RedAO= T EigKep=  5.82D-03  NBF=    75
 NBsUse=    75 1.00D-06 EigRej= -1.00D+00 NBFU=    75
 Initial guess from the checkpoint file:  "/scratch/brown/zhao922/pyGSM/new-benchmarking/R1-3/TS-folder/Gau-220522.chk"
 B after Tr=     0.000000   -0.000000    0.000000
         Rot=    0.998893    0.046362    0.003315   -0.007260 Ang=   5.39 deg.
 ExpMin= 1.61D-01 ExpMax= 3.05D+03 ExpMxC= 4.57D+02 IAcc=3 IRadAn=         5 AccDes= 0.00D+00
 Harris functional with IExCor=  402 and IRadAn=       5 diagonalized for initial guess.
 HarFok:  IExCor=  402 AccDes= 0.00D+00 IRadAn=         5 IDoV= 1 UseB2=F ITyADJ=14
 ICtDFT=  3500011 ScaDFX=  1.000000  1.000000  1.000000  1.000000
 FoFCou: FMM=F IPFlag=           0 FMFlag=      100000 FMFlg1=           0
         NFxFlg=           0 DoJE=T BraDBF=F KetDBF=T FulRan=T
         wScrn=  0.000000 ICntrl=       500 IOpCl=  0 I1Cent=   200000004 NGrid=           0
         NMat0=    1 NMatS0=      1 NMatT0=    0 NMatD0=    1 NMtDS0=    0 NMtDT0=    0
 Petite list used in FoFCou.
 Keep R1 ints in memory in canonical form, NReq=25608259.
 Requested convergence on RMS density matrix=1.00D-08 within 128 cycles.
 Requested convergence on MAX density matrix=1.00D-06.
 Requested convergence on             energy=1.00D-06.
 No special actions if energy rises.
 Integral accuracy reduced to 1.0D-05 until final iterations.
 Initial convergence to 1.0D-05 achieved.  Increase integral accuracy.
 SCF Done:  E(RB3LYP) =  -117.767533188     A.U. after   14 cycles
            NFock= 14  Conv=0.16D-08     -V/T= 2.0099
 DoSCS=F DFT=T ScalE2(SS,OS)=  1.000000  1.000000
 Range of M.O.s used for correlation:     1    75
 NBasis=    75 NAE=    12 NBE=    12 NFC=     0 NFV=     0
 NROrb=     75 NOA=    12 NOB=    12 NVA=    63 NVB=    63

 **** Warning!!: The smallest alpha delta epsilon is  0.70287517D-01

 Symmetrizing basis deriv contribution to polar:
 IMax=3 JMax=2 DiffMx= 0.00D+00
 G2DrvN: will do    10 centers at a time, making    1 passes.
 Calling FoFCou, ICntrl=  3107 FMM=F I1Cent=   0 AccDes= 0.00D+00.
 End of G2Drv F.D. properties file   721 does not exist.
 End of G2Drv F.D. properties file   722 does not exist.
 End of G2Drv F.D. properties file   788 does not exist.
          IDoAtm=111111111
          Differentiating once with respect to electric field.
                with respect to dipole field.
          Differentiating once with respect to nuclear coordinates.
 Keep R1 ints in memory in canonical form, NReq=25532597.
          There are    30 degrees of freedom in the 1st order CPHF.  IDoFFX=6 NUNeed=     3.
     27 vectors produced by pass  0 Test12= 2.52D-15 3.33D-09 XBig12= 9.89D+02 3.10D+01.
 AX will form    27 AO Fock derivatives at one time.
     27 vectors produced by pass  1 Test12= 2.52D-15 3.33D-09 XBig12= 2.16D+02 3.81D+00.
     27 vectors produced by pass  2 Test12= 2.52D-15 3.33D-09 XBig12= 2.64D+00 3.19D-01.
     27 vectors produced by pass  3 Test12= 2.52D-15 3.33D-09 XBig12= 4.11D-03 1.26D-02.
     27 vectors produced by pass  4 Test12= 2.52D-15 3.33D-09 XBig12= 2.20D-06 2.38D-04.
     11 vectors produced by pass  5 Test12= 2.52D-15 3.33D-09 XBig12= 7.45D-10 4.49D-06.
      2 vectors produced by pass  6 Test12= 2.52D-15 3.33D-09 XBig12= 2.01D-13 6.65D-08.
 InvSVY:  IOpt=1 It=  1 EMax= 3.55D-15
 Solved reduced A of dimension   148 with    30 vectors.
 Isotropic polarizability for W=    0.000000       43.45 Bohr**3.
 End of Minotr F.D. properties file   721 does not exist.
 End of Minotr F.D. properties file   722 does not exist.
 End of Minotr F.D. properties file   788 does not exist.
 Calling FoFJK, ICntrl=    100127 FMM=F ISym2X=0 I1Cent= 0 IOpClX= 0 NMat=1 NMatS=1 NMatT=0.
 ***** Axes restored to original set *****
 -------------------------------------------------------------------
 Center     Atomic                   Forces (Hartrees/Bohr)
 Number     Number              X              Y              Z
 -------------------------------------------------------------------
      1        6           0.004367066    0.010174853   -0.002238469
      2        6          -0.002655776   -0.022758079   -0.005626002
      3        6           0.001239336    0.004867049    0.006111285
      4        1           0.000813603    0.005962781    0.000876544
      5        1          -0.000564044   -0.001475497    0.004602536
      6        1          -0.001135119    0.000399476    0.000592240
      7        1          -0.001429410    0.001369878   -0.003713121
      8        1          -0.000412472   -0.002395190   -0.002103094
      9        1          -0.000223184    0.003854729    0.001498081
 -------------------------------------------------------------------
 Cartesian Forces:  Max     0.022758079 RMS     0.005625568
 FormGI is forming the generalized inverse of G from B-inverse, IUseBI=4.

 GradGradGradGradGradGradGradGradGradGradGradGradGradGradGradGradGradGrad
 Berny optimization.
 Internal  Forces:  Max     0.006469011 RMS     0.002611614
 Search for a saddle point.
 Step number   5 out of a maximum of  100
 All quantities printed in internal units (Hartrees-Bohrs-Radians)
 Swapping is turned off.
 Second derivative matrix not updated -- analytic derivatives used.
 ITU=  0  0  0  0  0
     Eigenvalues ---   -0.00708  -0.00213   0.01496   0.01820   0.02949
     Eigenvalues ---    0.03638   0.07217   0.09068   0.10722   0.11446
     Eigenvalues ---    0.12679   0.13428   0.17293   0.29154   0.31158
     Eigenvalues ---    0.35269   0.35755   0.36037   0.36130   0.36442
     Eigenvalues ---    0.38485
 Eigenvectors required to have negative eigenvalues:
                          D2        D5        D8        D3        D12
   1                    0.43265   0.38332   0.32680   0.31858   0.27466
                          D6        D1        D7        D4        D11
   1                    0.26925   0.26531   0.25388   0.21598   0.20174
 RFO step:  Lambda0=1.898358375D-03 Lambda=-5.82515911D-03.
 Linear search not attempted -- option 19 set.
 Iteration  1 RMS(Cart)=  0.08619966 RMS(Int)=  0.06838612
 Iteration  2 RMS(Cart)=  0.05391294 RMS(Int)=  0.00414357
 Iteration  3 RMS(Cart)=  0.00370308 RMS(Int)=  0.00093427
 Iteration  4 RMS(Cart)=  0.00002329 RMS(Int)=  0.00093397
 Iteration  5 RMS(Cart)=  0.00000001 RMS(Int)=  0.00093397
 Variable       Old X    -DE/DX   Delta X   Delta X   Delta X     New X
                                 (Linear)    (Quad)   (Total)
    R1        2.75800   0.00145   0.00000   0.01041   0.01041   2.76841
    R2        2.05279  -0.00000   0.00000  -0.00062  -0.00062   2.05217
    R3        2.05889   0.00019   0.00000  -0.00354  -0.00354   2.05536
    R4        2.75313  -0.00038   0.00000  -0.02131  -0.02131   2.73182
    R5        2.09566  -0.00023   0.00000  -0.00777  -0.00777   2.08789
    R6        2.11153  -0.00012   0.00000   0.00344   0.00344   2.11496
    R7        2.05351  -0.00005   0.00000  -0.00196  -0.00196   2.05155
    R8        2.05388  -0.00007   0.00000  -0.00492  -0.00492   2.04896
    A1        2.09860  -0.00133   0.00000  -0.02299  -0.02410   2.07450
    A2        2.04847   0.00263   0.00000   0.04482   0.04372   2.09219
    A3        2.00512   0.00027   0.00000   0.02153   0.02031   2.02543
    A4        2.16555  -0.00381   0.00000   0.00414   0.00275   2.16830
    A5        1.96715  -0.00118   0.00000   0.00364   0.00324   1.97040
    A6        1.84206   0.00227   0.00000  -0.07614  -0.07780   1.76426
    A7        1.91238  -0.00052   0.00000   0.03260   0.03231   1.94469
    A8        1.84412   0.00286   0.00000  -0.03713  -0.03921   1.80490
    A9        1.65311   0.00304   0.00000   0.07886   0.07961   1.73272
   A10        2.10535  -0.00017   0.00000   0.00020  -0.00168   2.10367
   A11        2.08228   0.00025   0.00000   0.02339   0.02151   2.10379
   A12        2.03845  -0.00024   0.00000   0.01221   0.01027   2.04872
    D1        2.17695   0.00647   0.00000   0.32172   0.32257   2.49952
    D2       -1.72945  -0.00111   0.00000   0.39034   0.39065  -1.33880
    D3        0.05180   0.00305   0.00000   0.44502   0.44432   0.49612
    D4       -0.41031   0.00332   0.00000   0.23049   0.23103  -0.17928
    D5        1.96647  -0.00426   0.00000   0.29911   0.29911   2.26558
    D6       -2.53546  -0.00010   0.00000   0.35378   0.35278  -2.18268
    D7       -0.17187  -0.00549   0.00000  -0.15761  -0.15786  -0.32973
    D8        2.60181  -0.00602   0.00000  -0.04404  -0.04402   2.55779
    D9       -2.56858   0.00208   0.00000  -0.21426  -0.21470  -2.78328
   D10        0.20510   0.00155   0.00000  -0.10069  -0.10086   0.10424
   D11        1.95235  -0.00234   0.00000  -0.29858  -0.29830   1.65405
   D12       -1.55716  -0.00286   0.00000  -0.18502  -0.18446  -1.74162
         Item               Value     Threshold  Converged?
 Maximum Force            0.006469     0.000450     NO 
 RMS     Force            0.002612     0.000300     NO 
 Maximum Displacement     0.478000     0.001800     NO 
 RMS     Displacement     0.134966     0.001200     NO 
 Predicted change in Energy=-3.326683D-03
 GradGradGradGradGradGradGradGradGradGradGradGradGradGradGradGradGradGrad

                          Input orientation:                          
 ---------------------------------------------------------------------
 Center     Atomic      Atomic             Coordinates (Angstroms)
 Number     Number       Type             X           Y           Z
 ---------------------------------------------------------------------
      1          6           0       -2.597145    0.285864    1.469889
[...]
 Total                   48.903             13.363             62.244
 Electronic               0.000              0.000              0.000
 Translational            0.889              2.981             37.135
 Rotational               0.889              2.981             22.151
 Vibrational             47.126              7.402              2.958
 Vibration     1          0.787              1.416              0.875
 Vibration     2          0.932              1.085              0.494
 Vibration     3          0.972              1.005              0.428
                       Q            Log10(Q)             Ln(Q)
 Total Bot       0.210228D-22        -22.677309        -52.216434
 Total V=0       0.240721D+12         11.381515         26.206906
 Vib (Bot)       0.126795D-33        -33.896899        -78.050495
 Vib (Bot)    1  0.411495D+00         -0.385635         -0.887959
 Vib (Bot)    2  0.266144D+00         -0.574884         -1.323719
 Vib (Bot)    3  0.240393D+00         -0.619079         -1.425482
 Vib (V=0)       0.145186D+01          0.161925          0.372846
 Vib (V=0)    1  0.114756D+01          0.059774          0.137634
 Vib (V=0)    2  0.106642D+01          0.027929          0.064308
 Vib (V=0)    3  0.105479D+01          0.023165          0.053339
 Electronic      0.100000D+01          0.000000          0.000000
 Translational   0.107166D+08          7.030056         16.187301
 Rotational      0.154716D+05          4.189534          9.646760
 ***** Axes restored to original set *****
 -------------------------------------------------------------------
 Center     Atomic                   Forces (Hartrees/Bohr)
 Number     Number              X              Y              Z
 -------------------------------------------------------------------
      1        6          -0.000000212    0.000000168   -0.000000147
      2        6           0.000000117    0.000000260    0.000000746
      3        6          -0.000000411    0.000000114   -0.000000379
      4        1          -0.000000043   -0.000000017    0.000000043
      5        1          -0.000000140   -0.000000179    0.000000296
      6        1          -0.000000191   -0.000000161    0.000000006
      7        1           0.000000951   -0.000000376   -0.000000554
      8        1          -0.000000028    0.000000232   -0.000000020
      9        1          -0.000000044   -0.000000042    0.000000008
 -------------------------------------------------------------------
 Cartesian Forces:  Max     0.000000951 RMS     0.000000315
 FormGI is forming the generalized inverse of G from B-inverse, IUseBI=4.

 GradGradGradGradGradGradGradGradGradGradGradGradGradGradGradGradGradGrad
 Berny optimization.
 Internal  Forces:  Max     0.000000812 RMS     0.000000276
 Search for a saddle point.
 Step number   1 out of a maximum of    2
 All quantities printed in internal units (Hartrees-Bohrs-Radians)
 Swapping is turned off.
 Second derivative matrix not updated -- analytic derivatives used.
 ITU=  0
     Eigenvalues ---   -0.01466   0.00642   0.01424   0.01634   0.02718
     Eigenvalues ---    0.03383   0.05093   0.10191   0.10550   0.11518
     Eigenvalues ---    0.13358   0.14424   0.18107   0.28647   0.31669
     Eigenvalues ---    0.33926   0.35389   0.35709   0.36524   0.36568
     Eigenvalues ---    0.41355
 Eigenvectors required to have negative eigenvalues:
                          D5        D2        D6        D8        D3
   1                    0.43138   0.41152   0.34662   0.34626   0.32677
                          D7        A6        D4        D1        A4
   1                    0.27712  -0.27175   0.20769   0.18783   0.18721
 Angle between quadratic step and forces=  53.05 degrees.
 Linear search not attempted -- option 19 set.
 Iteration  1 RMS(Cart)=  0.00001054 RMS(Int)=  0.00000000
 Iteration  2 RMS(Cart)=  0.00000000 RMS(Int)=  0.00000000
 Variable       Old X    -DE/DX   Delta X   Delta X   Delta X     New X
                                 (Linear)    (Quad)   (Total)
    R1        2.81707   0.00000   0.00000  -0.00001  -0.00001   2.81706
    R2        2.05830   0.00000   0.00000  -0.00000  -0.00000   2.05830
    R3        2.05750  -0.00000   0.00000  -0.00000  -0.00000   2.05750
    R4        2.71137  -0.00000   0.00000   0.00000   0.00000   2.71137
    R5        2.07318   0.00000   0.00000   0.00000   0.00000   2.07318
    R6        2.12797   0.00000   0.00000   0.00000   0.00000   2.12797
    R7        2.05017   0.00000   0.00000  -0.00000  -0.00000   2.05017
    R8        2.04997  -0.00000   0.00000   0.00000   0.00000   2.04997
    A1        2.05887   0.00000   0.00000   0.00000   0.00000   2.05888
    A2        2.05985  -0.00000   0.00000   0.00000   0.00000   2.05985
    A3        2.01088  -0.00000   0.00000   0.00000   0.00000   2.01088
    A4        2.08105  -0.00000   0.00000   0.00000   0.00000   2.08105
    A5        2.02432  -0.00000   0.00000  -0.00000  -0.00000   2.02432
    A6        1.60548   0.00000   0.00000   0.00003   0.00003   1.60551
    A7        2.03131   0.00000   0.00000  -0.00000  -0.00000   2.03131
    A8        1.76393  -0.00000   0.00000  -0.00002  -0.00002   1.76392
    A9        1.85286   0.00000   0.00000  -0.00001  -0.00001   1.85285
   A10        2.07501   0.00000   0.00000   0.00000   0.00000   2.07501
   A11        2.13949  -0.00000   0.00000  -0.00000  -0.00000   2.13949
   A12        2.05347   0.00000   0.00000   0.00000   0.00000   2.05347
    D1        2.39463  -0.00000   0.00000   0.00001   0.00001   2.39464
    D2       -1.32167   0.00000   0.00000   0.00000   0.00000  -1.32166
    D3        0.58198   0.00000   0.00000   0.00001   0.00001   0.58199
    D4       -0.15333  -0.00000   0.00000  -0.00001  -0.00001  -0.15335
    D5        2.41355  -0.00000   0.00000  -0.00001  -0.00001   2.41353
    D6       -1.96599   0.00000   0.00000  -0.00001  -0.00001  -1.96600
    D7       -0.63767  -0.00000   0.00000   0.00000   0.00000  -0.63767
    D8        2.31286   0.00000   0.00000   0.00001   0.00001   2.31287
    D9        3.08086  -0.00000   0.00000   0.00000   0.00000   3.08087
   D10       -0.25179   0.00000   0.00000   0.00001   0.00001  -0.25178
   D11        1.08364   0.00000   0.00000   0.00002   0.00002   1.08367
   D12       -2.24901   0.00000   0.00000   0.00003   0.00003  -2.24898
         Item               Value     Threshold  Converged?
 Maximum Force            0.000001     0.000450     YES
 RMS     Force            0.000000     0.000300     YES
 Maximum Displacement     0.000045     0.001800     YES
 RMS     Displacement     0.000011     0.001200     YES
 Predicted change in Energy=-2.756605D-11
 Optimization completed.
    -- Stationary point found.
                           ----------------------------
                           !   Optimized Parameters   !
                           ! (Angstroms and Degrees)  !
 --------------------------                            --------------------------
 ! Name  Definition              Value          Derivative Info.                !
 --------------------------------------------------------------------------------
 ! R1    R(1,2)                  1.4907         -DE/DX =    0.0                 !
 ! R2    R(1,5)                  1.0892         -DE/DX =    0.0                 !
 ! R3    R(1,6)                  1.0888         -DE/DX =    0.0                 !
 ! R4    R(2,3)                  1.4348         -DE/DX =    0.0                 !
 ! R5    R(2,4)                  1.0971         -DE/DX =    0.0                 !
 ! R6    R(2,7)                  1.1261         -DE/DX =    0.0                 !
 ! R7    R(3,8)                  1.0849         -DE/DX =    0.0                 !
 ! R8    R(3,9)                  1.0848         -DE/DX =    0.0                 !
 ! A1    A(2,1,5)              117.9648         -DE/DX =    0.0                 !
 ! A2    A(2,1,6)              118.0205         -DE/DX =    0.0                 !
 ! A3    A(5,1,6)              115.2149         -DE/DX =    0.0                 !
 ! A4    A(1,2,3)              119.2354         -DE/DX =    0.0                 !
 ! A5    A(1,2,4)              115.9848         -DE/DX =    0.0                 !
 ! A6    A(1,2,7)               91.9872         -DE/DX =    0.0                 !
 ! A7    A(3,2,4)              116.3855         -DE/DX =    0.0                 !
 ! A8    A(3,2,7)              101.0659         -DE/DX =    0.0                 !
 ! A9    A(4,2,7)              106.1611         -DE/DX =    0.0                 !
 ! A10   A(2,3,8)              118.8893         -DE/DX =    0.0                 !
 ! A11   A(2,3,9)              122.5835         -DE/DX =    0.0                 !
 ! A12   A(8,3,9)              117.6553         -DE/DX =    0.0                 !
 ! D1    D(5,1,2,3)            137.2025         -DE/DX =    0.0                 !
 ! D2    D(5,1,2,4)            -75.726          -DE/DX =    0.0                 !
 ! D3    D(5,1,2,7)             33.345          -DE/DX =    0.0                 !
 ! D4    D(6,1,2,3)             -8.7854         -DE/DX =    0.0                 !
 ! D5    D(6,1,2,4)            138.2861         -DE/DX =    0.0                 !
 ! D6    D(6,1,2,7)           -112.6429         -DE/DX =    0.0                 !
 ! D7    D(1,2,3,8)            -36.5359         -DE/DX =    0.0                 !
 ! D8    D(1,2,3,9)            132.517          -DE/DX =    0.0                 !
 ! D9    D(4,2,3,8)            176.5205         -DE/DX =    0.0                 !
 ! D10   D(4,2,3,9)            -14.4266         -DE/DX =    0.0                 !
 ! D11   D(7,2,3,8)             62.0882         -DE/DX =    0.0                 !
 ! D12   D(7,2,3,9)           -128.8588         -DE/DX =    0.0                 !
 --------------------------------------------------------------------------------
 GradGradGradGradGradGradGradGradGradGradGradGradGradGradGradGradGradGrad


 ----------------------------------------------------------------------

 Electric dipole moment (input orientation):
 (Debye = 10**-18 statcoulomb cm , SI units = C m)
                  (au)            (Debye)         (10**-30 SI)
   Tot        0.329721D+00      0.838068D+00      0.279550D+01
   x          0.341742D-01      0.868623D-01      0.289741D+00
   y         -0.294404D+00     -0.748300D+00     -0.249606D+01
   z         -0.144481D+00     -0.367234D+00     -0.122496D+01

 Dipole polarizability, Alpha (input orientation).
 (esu units = cm**3 , SI units = C**2 m**2 J**-1)
 Alpha(0;0):
               (au)            (10**-24 esu)      (10**-40 SI)
   iso        0.422462D+02      0.626025D+01      0.696547D+01
   aniso      0.456841D+02      0.676969D+01      0.753230D+01
   xx         0.705188D+02      0.104498D+02      0.116270D+02
   yx        -0.369398D+01     -0.547391D+00     -0.609055D+00
   yy         0.275839D+02      0.408751D+01      0.454797D+01
   zx        -0.868130D+01     -0.128644D+01     -0.143135D+01
   zy        -0.262509D+01     -0.388999D+00     -0.432820D+00
   zz         0.286361D+02      0.424343D+01      0.472145D+01

 ----------------------------------------------------------------------

 Dipole orientation:
     6         -4.47073996          2.62259401         -2.27488904
     6         -2.11095073          3.40200271         -0.94831827
     6          0.01450454          1.71868938         -0.92810979
     1         -1.68009657          5.42970832         -0.97720587
     1         -6.26891463          2.99750209         -1.34611647
     1         -4.41588404          0.91549354         -3.42210715
     1         -2.96455187          3.00498815          0.96007950
     1         -0.32133506         -0.29909858         -0.79054991
     1          1.91789883          2.33852904         -1.37001953

 Electric dipole moment (dipole orientation):
 (Debye = 10**-18 statcoulomb cm , SI units = C m)
                  (au)            (Debye)         (10**-30 SI)
   Tot        0.329721D+00      0.838068D+00      0.279550D+01
   x          0.000000D+00      0.000000D+00      0.000000D+00
   y          0.000000D+00      0.000000D+00      0.000000D+00
   z          0.329721D+00      0.838068D+00      0.279550D+01

 Dipole polarizability, Alpha (dipole orientation).
 (esu units = cm**3 , SI units = C**2 m**2 J**-1)
 Alpha(0;0):
               (au)            (10**-24 esu)      (10**-40 SI)
   iso        0.422462D+02      0.626025D+01      0.696547D+01
   aniso      0.456841D+02      0.676969D+01      0.753230D+01
   xx         0.675981D+02      0.100170D+02      0.111454D+02
   yx        -0.866066D+01     -0.128338D+01     -0.142795D+01
   yy         0.314754D+02      0.466417D+01      0.518959D+01
   zx         0.116174D+02      0.172152D+01      0.191545D+01
   zy        -0.207611D+00     -0.307647D-01     -0.342304D-01
   zz         0.276652D+02      0.409957D+01      0.456138D+01

 ----------------------------------------------------------------------
 1\1\GINC-BROWN-A094\Freq\RB3LYP\6-31G(d,p)\C3H6\ZHAO922\17-Jul-2020\0\
 \#N Geom=AllCheck Guess=TCheck SCRF=Check GenChk RB3LYP/6-31G(d,p) Fre
 q\\pp_2_2 TS\\0,1\C,-2.5622157258,0.3041441469,1.521459365\C,-1.276577
 8259,-0.4261110707,1.7115470403\C,-0.1018093107,0.0336965613,1.0280786
 958\H,-1.1209128222,-0.8759917364,2.6999574427\H,-3.4684869182,-0.2843
 421861,1.3846124752\H,-2.5381967181,1.250658497,0.9838894948\H,-1.6067
 214125,-1.2632563507,1.0346211625\H,-0.2019476939,0.4331265609,0.02436
 65677\H,0.8525564273,0.161130578,1.527815756\\Version=ES64L-G16RevB.01
 \State=1-A\HF=-117.7732262\RMSD=4.654e-09\RMSF=3.148e-07\ZeroPoint=0.0
 740461\Thermal=0.077932\Dipole=0.0341742,-0.2944038,-0.1444811\DipoleD
 eriv=-0.2131169,0.0119785,0.1744024,0.4409733,0.1222345,-0.223724,0.29
 18126,-0.1546419,-0.3862991,0.093413,-0.0863762,-0.1198487,-0.2208793,
 -0.1992303,0.0702634,-0.0341762,-0.0818423,0.2000993,-0.3326467,0.2409
 715,0.1990097,0.0750518,-0.2746833,-0.1241665,0.2097764,-0.1557421,-0.
 0248131,0.1455712,0.0274898,-0.0570018,0.0712712,0.0764911,0.088708,0.
 0131633,0.1230309,-0.0816867,-0.0028437,-0.0452327,-0.0268845,-0.15057
 28,-0.0345533,0.0184778,-0.2332358,0.0035797,0.1621557,0.0141129,-0.02
 61388,0.0094709,-0.0383201,-0.0392803,0.0977056,-0.0747761,0.1783668,0
 .0872668,0.2905161,-0.0580116,-0.0627485,0.0049444,0.100798,-0.0862679
 ,-0.0512389,-0.0122143,0.0740814,0.0139256,-0.0090646,-0.0612278,-0.04
 54374,0.0658594,0.1277598,-0.0216709,0.0560868,-0.0485358,-0.0089314,-
 0.0556159,-0.0551717,-0.1370311,0.1823642,0.0312439,-0.0996543,0.04337
 65,0.0177315\Polar=70.5187762,-3.6939792,27.5838885,-8.6812989,-2.6250
 944,28.6360798\Quadrupole=-0.1848076,0.2796617,-0.0948541,0.8246093,1.
 0354826,-0.7902606\PG=C01 [X(C3H6)]\NImag=1\\0.51831828,0.06546186,0.5
 0657910,0.07555777,-0.16779699,0.17830280,-0.16776750,0.06831958,-0.04
 841838,0.47519783,0.05645408,-0.07394849,0.05277551,0.04157545,0.37379
 077,-0.01671660,0.03621311,-0.04883106,-0.00001601,-0.10588202,0.55703
 527,-0.04139500,-0.00822936,0.01592357,-0.22466827,-0.06487519,0.09745
 315,0.61451266,0.01911708,0.00229775,-0.00720621,-0.08016168,-0.068809
 94,0.06765690,0.11861390,0.17671621,0.01681553,-0.00159073,0.00045672,
 0.06293750,0.05435315,-0.14867302,0.05310704,-0.16331451,0.56701150,-0
 .00102115,0.00931527,-0.01914276,-0.05785128,0.02015685,-0.03729378,0.
 00741508,-0.00842695,0.02754787,0.05995491,0.00955446,-0.01216081,0.01
 314720,0.00816965,-0.07661447,0.09933315,0.00138951,-0.00340218,0.0080
 1787,-0.02094337,0.08498243,-0.00576765,0.00192465,0.00415822,-0.02770
 502,0.09257138,-0.25468472,-0.00112574,0.00173903,-0.01357284,0.033131
 78,-0.10526248,0.27810593,-0.24133533,-0.12927869,-0.02563413,-0.01524
 251,-0.00662911,-0.00209714,-0.00067845,0.00084917,-0.00324589,-0.0020
 1520,0.00033209,-0.00035496,0.26020950,-0.13742324,-0.13835890,-0.0061
 8943,0.01905006,0.00181917,-0.00220213,-0.00064571,0.00157448,0.003087
 83,0.00003748,-0.00004580,0.00055182,0.13586282,0.14104187,-0.05307270
 ,-0.00472591,-0.02880920,0.00632836,-0.02627830,-0.00483878,-0.0051498
 4,0.00522689,0.00454343,0.00078477,0.00058058,-0.00071106,0.03469816,0
 .01090072,0.02164508,-0.05248285,-0.01200113,0.00300924,-0.00308248,0.
 01801543,-0.01686961,0.00370000,0.00110965,-0.00190966,-0.00302709,0.0
 0295390,0.00042541,0.00286324,-0.02018691,0.01266027,0.05204716,-0.014
 37586,-0.26526865,0.12357150,0.00750311,-0.00004519,0.01191565,-0.0025
 0134,-0.00339208,0.00205190,0.00155159,-0.00097704,-0.00168434,0.00029
 833,-0.00879912,0.01077722,0.00820347,0.27759989,-0.01182107,0.1455094
 6,-0.09504095,0.01986977,0.01008405,-0.00044102,-0.00102425,-0.0080380
 1,0.00407337,-0.00129054,0.00238623,-0.00075690,-0.00330696,-0.0069656
 4,0.00349833,0.00081308,-0.14428146,0.09045484,-0.01612609,0.01120205,
 -0.00116566,0.00269853,-0.05415987,-0.03766369,-0.02486225,-0.02055320
 ,-0.00010294,-0.00051113,-0.00027771,-0.00028466,-0.00301812,0.0025322
 6,0.00344389,0.00005349,-0.00147313,-0.00321313,0.04458078,0.00404359,
 -0.01948054,-0.00779714,-0.06674042,-0.15955206,-0.11071314,0.00041023
 ,-0.01162367,-0.01071305,0.00198326,0.00870143,0.00790859,-0.00080844,
 0.00199128,0.00056881,0.00108753,0.00178948,0.00374924,0.06112117,0.17
 595055,-0.00303398,-0.01306236,-0.01111113,-0.02645800,-0.08252109,-0.
 09858433,-0.00341554,0.00152558,0.00648319,-0.00469158,-0.01905388,-0.
 01476749,-0.00087450,0.00159643,0.00402089,0.00113480,-0.00100994,-0.0
 0132788,0.03637057,0.11457708,0.11502654,0.00252076,-0.00225735,0.0009
 7580,0.00250924,-0.00668756,0.02467021,-0.05667160,0.00164518,-0.03443
 563,-0.00364616,-0.00210654,0.00135407,0.00019732,0.00008807,0.0003127
 5,-0.00007113,0.00056951,-0.00007801,0.00037661,0.00012993,-0.00085740
 ,0.05340686,-0.00112236,0.00572996,-0.00493419,0.00862051,-0.01015877,
 0.01496340,-0.00360239,-0.06066972,0.10956608,-0.00350250,0.00122307,0
 .00347005,-0.00014903,-0.00040765,-0.00108401,0.00016202,0.00012873,-0
 .00030899,0.00299853,0.00054651,0.00114487,-0.00172898,0.05989980,-0.0
 0270353,0.00254334,-0.00081110,-0.00121423,0.00163119,-0.00810326,-0.0
 3064928,0.10523039,-0.30279763,0.00190113,0.00200488,0.00177427,0.0001
 4122,-0.00047827,-0.00047420,0.00061061,-0.00070237,0.00006258,0.00106
 177,0.00094247,0.00078643,0.02971242,-0.11744411,0.31637415,-0.0007111
 3,-0.00253223,-0.00110544,-0.01179356,-0.00385006,-0.01146653,-0.27735
 216,-0.03219315,-0.12071382,0.00070202,0.00092802,0.00032677,-0.000980
 45,0.00068517,-0.00000567,-0.00000036,0.00022433,0.00005111,-0.0031918
 3,-0.00122687,0.00182562,0.00137810,-0.00167579,0.00113989,0.29194937,
 -0.00170961,-0.00538941,0.00442974,-0.00633625,0.01351897,-0.01128493,
 -0.04055964,-0.03269085,-0.00145855,-0.00017164,-0.00170663,-0.0012186
 9,-0.00047713,0.00118468,0.00403400,0.00065604,-0.00103601,-0.00213488
 ,-0.00139010,0.00167701,-0.00319668,0.01034775,0.00370807,0.00627248,0
 .03964059,0.02073418,0.00074223,0.00098543,0.00168569,0.01467602,0.003
 26614,0.00712092,-0.12511911,-0.00282007,-0.11752471,-0.00094689,-0.00
 115356,0.00045459,0.00067419,-0.00030133,0.00112551,0.00012585,-0.0006
 3816,-0.00052237,0.00155384,0.00147714,-0.00052622,-0.02165421,-0.0053
 7310,-0.00681123,0.12994807,0.00455751,0.11499783\\0.00000021,-0.00000
 017,0.00000015,-0.00000012,-0.00000026,-0.00000075,0.00000041,-0.00000
 011,0.00000038,0.00000004,0.00000002,-0.00000004,0.00000014,0.00000018
 ,-0.00000030,0.00000019,0.00000016,0.,-0.00000095,0.00000038,0.0000005
 5,0.00000003,-0.00000023,0.00000002,0.00000004,0.00000004,0.\\\@


 WE HAVE LEFT UNDONE THOSE THINGS WHICH WE OUGHT TO HAVE DONE,
 AND WE HAVE DONE THOSE THINGS WHICH WE OUGHT NOT TO HAVE DONE.
                   BOOK OF COMMON PRAYER                      
 Job cpu time:       0 days  0 hours  1 minutes 57.0 seconds.
 Elapsed time:       0 days  0 hours  0 minutes  5.5 seconds.
 File lengths (MBytes):  RWF=     10 Int=      0 D2E=      0 Chk=      2 Scr=      1
 Normal termination of Gaussian 16 at Fri Jul 17 17:29:26 2020.
