 Entering Gaussian System, Link 0=g16
 Initial command:
 /apps/cent7/gaussian/g16-B.01/g16-haswell/g16/l1.exe "/scratch/brown/zhao922/pyGSM/new-benchmarking/R1-3/TS-folder/Gau-216866.inp" -scrdir="/scratch/brown/zhao922/pyGSM/new-benchmarking/R1-3/TS-folder/"
 Entering Link 1 = /apps/cent7/gaussian/g16-B.01/g16-haswell/g16/l1.exe PID=    216867.
  
 Copyright (c) 1988-2017, Gaussian, Inc.  All Rights Reserved.
  
 This is part of the Gaussian(R) 16 program.  It is based on
 the Gaussian(R) 09 system (copyright 2009, Gaussian, Inc.),
 the Gaussian(R) 03 system (copyright 2003, Gaussian, Inc.),
 the Gaussian(R) 98 system (copyright 1998, Gaussian, Inc.),
 the Gaussian(R) 94 system (copyright 1995, Gaussian, Inc.),
 the Gaussian 92(TM) system (copyright 1992, Gaussian, Inc.),
 the Gaussian 90(TM) system (copyright 1990, Gaussian, Inc.),
 the Gaussian 88(TM) system (copyright 1988, Gaussian, Inc.),
 the Gaussian 86(TM) system (copyright 1986, Carnegie Mellon
 University), and the Gaussian 82(TM) system (copyright 1983,
 Carnegie Mellon University). Gaussian is a federally registered
 trademark of Gaussian, Inc.
  
 This software contains proprietary and confidential information,
 including trade secrets, belonging to Gaussian, Inc.
  
 This software is provided under written license and may be
 used, copied, transmitted, or stored only in accord with that
 written license.
  
 The following legend is applicable only to US Government
 contracts under FAR:
  
                    RESTRICTED RIGHTS LEGEND
  
 Use, reproduction and disclosure by the US Government is
 subject to restrictions as set forth in subparagraphs (a)
 and (c) of the Commercial Computer Software - Restricted
 Rights clause in FAR 52.227-19.
  
 Gaussian, Inc.
 340 Quinnipiac St., Bldg. 40, Wallingford CT 06492
  
  
 ---------------------------------------------------------------
 Warning -- This program may not be used in any manner that
 competes with the business of Gaussian, Inc. or will provide
 assistance to any competitor of Gaussian, Inc.  The licensee
 of this program is prohibited from giving any competitor of
 Gaussian, Inc. access to this program.  By using this program,
 the user acknowledges that Gaussian, Inc. is engaged in the
 business of creating and licensing software in the field of
 computational chemistry and represents and warrants to the
 licensee that it is not a competitor of Gaussian, Inc. and that
 it will not use this program in any manner prohibited above.
 ---------------------------------------------------------------
  

 Cite this work as:
 Gaussian 16, Revision B.01,
 M. J. Frisch, G. W. Trucks, H. B. Schlegel, G. E. Scuseria, 
 M. A. Robb, J. R. Cheeseman, G. Scalmani, V. Barone, 
 G. A. Petersson, H. Nakatsuji, X. Li, M. Caricato, A. V. Marenich, 
 J. Bloino, B. G. Janesko, R. Gomperts, B. Mennucci, H. P. Hratchian, 
 J. V. Ortiz, A. F. Izmaylov, J. L. Sonnenberg, D. Williams-Young, 
 F. Ding, F. Lipparini, F. Egidi, J. Goings, B. Peng, A. Petrone, 
 T. Henderson, D. Ranasinghe, V. G. Zakrzewski, J. Gao, N. Rega, 
 G. Zheng, W. Liang, M. Hada, M. Ehara, K. Toyota, R. Fukuda, 
 J. Hasegawa, M. Ishida, T. Nakajima, Y. Honda, O. Kitao, H. Nakai, 
 T. Vreven, K. Throssell, J. A. Montgomery, Jr., J. E. Peralta, 
 F. Ogliaro, M. J. Bearpark, J. J. Heyd, E. N. Brothers, K. N. Kudin, 
 V. N. Staroverov, T. A. Keith, R. Kobayashi, J. Normand, 
 K. Raghavachari, A. P. Rendell, J. C. Burant, S. S. Iyengar, 
 J. Tomasi, M. Cossi, J. M. Millam, M. Klene, C. Adamo, R. Cammi, 
 J. W. Ochterski, R. L. Martin, K. Morokuma, O. Farkas, 
 J. B. Foresman, and D. J. Fox, Gaussian, Inc., Wallingford CT, 2016.
 
 ******************************************
 Gaussian 16:  ES64L-G16RevB.01 20-Dec-2017
                17-Jul-2020 
 ******************************************
 %NProcShared=24
 Will use up to   24 processors via shared memory.
 %Mem=60GB
 --------------------------------------------------------------
 # B3LYP/6-31G** OPT=(TS, CALCALL, NOEIGEN, maxcycles=100) Freq
 --------------------------------------------------------------
 1/5=1,6=100,10=4,11=1,18=20,26=3,38=1/1,3;
 2/9=110,12=2,17=6,18=5,40=1/2;
 3/5=1,6=6,7=101,11=2,25=1,30=1,71=2,74=-5,140=1/1,2,3;
 4//1;
 5/5=2,38=5/2;
 8/6=4,10=90,11=11/1;
 11/6=1,8=1,9=11,15=111,16=1/1,2,10;
 10/6=1/2;
 6/7=2,8=2,9=2,10=2,18=1,28=1/1;
 7/10=1,25=1/1,2,3,16;
 1/5=1,6=100,10=4,11=1,18=20,26=3/3(3);
 2/9=110/2;
 7/8=1,9=1,25=1,44=-1/16;
 99//99;
 2/9=110/2;
 3/5=1,6=6,7=101,11=2,25=1,30=1,71=2,74=-5,140=1/1,2,3;
 4/5=5,16=3,69=1/1;
 5/5=2,38=5/2;
 8/6=4,10=90,11=11/1;
 11/6=1,8=1,9=11,15=111,16=1/1,2,10;
 10/6=1/2;
 7/10=1,25=1/1,2,3,16;
 1/5=1,6=100,10=4,11=1,18=20,26=3/3(-8);
 2/9=110/2;
 6/7=2,8=2,9=2,10=2,18=1,19=2,28=1/1;
 7/8=1,9=1,25=1,44=-1/16;
 99//99;
 ---------
 pp_2_1 TS
 ---------
 Symbolic Z-matrix:
 Charge =  0 Multiplicity = 1
 C                    -2.51601  -0.38534   1.34067 
 C                    -1.23226   0.22944   1.82925 
 C                    -0.17221  -0.00015   0.86706 
 H                    -0.97163   0.14877   2.8746 
 H                    -2.87523  -0.13607   0.36401 
 H                    -1.80788   1.26698   1.78638 
 H                    -3.01737  -1.19916   1.83186 
 H                    -0.28669   0.22247  -0.17301 
 H                     0.82575  -0.1809    1.22858 
 

 GradGradGradGradGradGradGradGradGradGradGradGradGradGradGradGradGradGrad
 Berny optimization.
 Initialization pass.
                           ----------------------------
                           !    Initial Parameters    !
                           ! (Angstroms and Degrees)  !
 --------------------------                            --------------------------
 ! Name  Definition              Value          Derivative Info.                !
 --------------------------------------------------------------------------------
 ! R1    R(1,2)                  1.5049         calculate D2E/DX2 analytically  !
 ! R2    R(1,5)                  1.0701         calculate D2E/DX2 analytically  !
 ! R3    R(1,7)                  1.0747         calculate D2E/DX2 analytically  !
 ! R4    R(2,3)                  1.4499         calculate D2E/DX2 analytically  !
 ! R5    R(2,4)                  1.0804         calculate D2E/DX2 analytically  !
 ! R6    R(2,6)                  1.1873         calculate D2E/DX2 analytically  !
 ! R7    R(3,8)                  1.0698         calculate D2E/DX2 analytically  !
 ! R8    R(3,9)                  1.0767         calculate D2E/DX2 analytically  !
 ! A1    A(2,1,5)              119.1782         calculate D2E/DX2 analytically  !
 ! A2    A(2,1,7)              123.9827         calculate D2E/DX2 analytically  !
 ! A3    A(5,1,7)              115.9096         calculate D2E/DX2 analytically  !
 ! A4    A(1,2,3)              110.0925         calculate D2E/DX2 analytically  !
 ! A5    A(1,2,4)              119.3029         calculate D2E/DX2 analytically  !
 ! A6    A(1,2,6)               86.0834         calculate D2E/DX2 analytically  !
 ! A7    A(3,2,4)              116.9952         calculate D2E/DX2 analytically  !
 ! A8    A(3,2,6)              117.9611         calculate D2E/DX2 analytically  !
 ! A9    A(4,2,6)              102.5417         calculate D2E/DX2 analytically  !
 ! A10   A(2,3,8)              122.2768         calculate D2E/DX2 analytically  !
 ! A11   A(2,3,9)              118.7773         calculate D2E/DX2 analytically  !
 ! A12   A(8,3,9)              117.4232         calculate D2E/DX2 analytically  !
 ! D1    D(5,1,2,3)            -53.2279         calculate D2E/DX2 analytically  !
 ! D2    D(5,1,2,4)            167.3472         calculate D2E/DX2 analytically  !
 ! D3    D(5,1,2,6)             65.1562         calculate D2E/DX2 analytically  !
 ! D4    D(7,1,2,3)            115.2723         calculate D2E/DX2 analytically  !
 ! D5    D(7,1,2,4)            -24.1525         calculate D2E/DX2 analytically  !
 ! D6    D(7,1,2,6)           -126.3435         calculate D2E/DX2 analytically  !
 ! D7    D(1,2,3,8)             50.4709         calculate D2E/DX2 analytically  !
 ! D8    D(1,2,3,9)           -143.973          calculate D2E/DX2 analytically  !
 ! D9    D(4,2,3,8)           -169.066          calculate D2E/DX2 analytically  !
 ! D10   D(4,2,3,9)             -3.51           calculate D2E/DX2 analytically  !
 ! D11   D(6,2,3,8)            -45.9503         calculate D2E/DX2 analytically  !
 ! D12   D(6,2,3,9)            119.6057         calculate D2E/DX2 analytically  !
 --------------------------------------------------------------------------------
 Trust Radius=3.00D-01 FncErr=1.00D-07 GrdErr=1.00D-06 EigMax=2.50D+02 EigMin=1.00D-04
 Number of steps in this run=    100 maximum allowed number of steps=    100.
 Search for a saddle point of order  1.
 GradGradGradGradGradGradGradGradGradGradGradGradGradGradGradGradGradGrad

                          Input orientation:                          
 ---------------------------------------------------------------------
 Center     Atomic      Atomic             Coordinates (Angstroms)
 Number     Number       Type             X           Y           Z
 ---------------------------------------------------------------------
      1          6           0       -2.516011   -0.385340    1.340673
      2          6           0       -1.232257    0.229442    1.829253
      3          6           0       -0.172212   -0.000154    0.867063
      4          1           0       -0.971629    0.148772    2.874601
      5          1           0       -2.875228   -0.136073    0.364012
      6          1           0       -1.807877    1.266981    1.786377
      7          1           0       -3.017374   -1.199164    1.831862
      8          1           0       -0.286686    0.222466   -0.173007
      9          1           0        0.825745   -0.180903    1.228582
 ---------------------------------------------------------------------
                    Distance matrix (angstroms):
                    1          2          3          4          5
     1  C    0.000000
     2  C    1.504889   0.000000
     3  C    2.421997   1.449903   0.000000
     4  H    2.241278   1.080364   2.165977   0.000000
     5  H    1.070064   2.231566   2.752786   3.163524   0.000000
     6  H    1.852099   1.187293   2.264105   1.770292   2.265154
     7  H    1.074682   2.286387   3.234719   2.662576   1.817953
     8  H    2.762344   2.214317   1.069771   3.124499   2.667862
     9  H    3.349879   2.182787   1.076701   2.459394   3.800880
                    6          7          8          9
     6  H    0.000000
     7  H    2.747148   0.000000
     8  H    2.691509   3.673852   0.000000
     9  H    3.056709   4.021239   1.834301   0.000000
 Stoichiometry    C3H6
 Framework group  C1[X(C3H6)]
 Deg. of freedom    21
 Full point group                 C1      NOp   1
 Largest Abelian subgroup         C1      NOp   1
 Largest concise Abelian subgroup C1      NOp   1
                         Standard orientation:                         
 ---------------------------------------------------------------------
 Center     Atomic      Atomic             Coordinates (Angstroms)
 Number     Number       Type             X           Y           Z
 ---------------------------------------------------------------------
      1          6           0        1.220436   -0.244902   -0.083036
      2          6           0       -0.042339    0.551809    0.104959
      3          6           0       -1.200961   -0.298707   -0.085925
      4          1           0       -0.099124    1.554518   -0.293207
      5          1           0        1.356822   -1.146328    0.477203
      6          1           0        0.335977    0.736287    1.215143
      7          1           0        1.928347   -0.071157   -0.872730
      8          1           0       -1.308724   -1.238072    0.414465
      9          1           0       -2.076116    0.115557   -0.556853
 ---------------------------------------------------------------------
 Rotational constants (GHZ):          34.4495863          10.0452651           8.6595521
 Standard basis: 6-31G(d,p) (6D, 7F)
 There are    75 symmetry adapted cartesian basis functions of A   symmetry.
 There are    75 symmetry adapted basis functions of A   symmetry.
    75 basis functions,   126 primitive gaussians,    75 cartesian basis functions
    12 alpha electrons       12 beta electrons
       nuclear repulsion energy        70.0846995329 Hartrees.
 NAtoms=    9 NActive=    9 NUniq=    9 SFac= 1.00D+00 NAtFMM=   60 NAOKFM=F Big=F
 Integral buffers will be    131072 words long.
 Raffenetti 2 integral format.
 Two-electron integral symmetry is turned on.
 One-electron integrals computed using PRISM.
 NBasis=    75 RedAO= T EigKep=  6.61D-03  NBF=    75
 NBsUse=    75 1.00D-06 EigRej= -1.00D+00 NBFU=    75
 ExpMin= 1.61D-01 ExpMax= 3.05D+03 ExpMxC= 4.57D+02 IAcc=3 IRadAn=         5 AccDes= 0.00D+00
 Harris functional with IExCor=  402 and IRadAn=       5 diagonalized for initial guess.
 HarFok:  IExCor=  402 AccDes= 0.00D+00 IRadAn=         5 IDoV= 1 UseB2=F ITyADJ=14
 ICtDFT=  3500011 ScaDFX=  1.000000  1.000000  1.000000  1.000000
 FoFCou: FMM=F IPFlag=           0 FMFlag=      100000 FMFlg1=           0
         NFxFlg=           0 DoJE=T BraDBF=F KetDBF=T FulRan=T
         wScrn=  0.000000 ICntrl=       500 IOpCl=  0 I1Cent=   200000004 NGrid=           0
         NMat0=    1 NMatS0=      1 NMatT0=    0 NMatD0=    1 NMtDS0=    0 NMtDT0=    0
 Petite list used in FoFCou.
 Keep R1 ints in memory in canonical form, NReq=25608259.
 Requested convergence on RMS density matrix=1.00D-08 within 128 cycles.
 Requested convergence on MAX density matrix=1.00D-06.
 Requested convergence on             energy=1.00D-06.
 No special actions if energy rises.
 Integral accuracy reduced to 1.0D-05 until final iterations.
 EnCoef did     4 forward-backward iterations
 Initial convergence to 1.0D-05 achieved.  Increase integral accuracy.
 SCF Done:  E(RB3LYP) =  -117.735055375     A.U. after   16 cycles
            NFock= 16  Conv=0.41D-08     -V/T= 2.0094
 DoSCS=F DFT=T ScalE2(SS,OS)=  1.000000  1.000000
 Range of M.O.s used for correlation:     1    75
 NBasis=    75 NAE=    12 NBE=    12 NFC=     0 NFV=     0
 NROrb=     75 NOA=    12 NOB=    12 NVA=    63 NVB=    63

 **** Warning!!: The smallest alpha delta epsilon is  0.49300638D-01

 Symmetrizing basis deriv contribution to polar:
 IMax=3 JMax=2 DiffMx= 0.00D+00
 G2DrvN: will do    10 centers at a time, making    1 passes.
 Calling FoFCou, ICntrl=  3107 FMM=F I1Cent=   0 AccDes= 0.00D+00.
 End of G2Drv F.D. properties file   721 does not exist.
 End of G2Drv F.D. properties file   722 does not exist.
 End of G2Drv F.D. properties file   788 does not exist.
          IDoAtm=111111111
          Differentiating once with respect to electric field.
                with respect to dipole field.
          Differentiating once with respect to nuclear coordinates.
 Keep R1 ints in memory in canonical form, NReq=25532597.
          There are    30 degrees of freedom in the 1st order CPHF.  IDoFFX=6 NUNeed=     3.
     27 vectors produced by pass  0 Test12= 2.52D-15 3.33D-09 XBig12= 1.50D+03 3.82D+01.
 AX will form    27 AO Fock derivatives at one time.
     27 vectors produced by pass  1 Test12= 2.52D-15 3.33D-09 XBig12= 3.11D+02 3.95D+00.
     27 vectors produced by pass  2 Test12= 2.52D-15 3.33D-09 XBig12= 4.17D+00 4.94D-01.
     27 vectors produced by pass  3 Test12= 2.52D-15 3.33D-09 XBig12= 5.28D-03 1.17D-02.
     27 vectors produced by pass  4 Test12= 2.52D-15 3.33D-09 XBig12= 3.37D-06 3.63D-04.
     11 vectors produced by pass  5 Test12= 2.52D-15 3.33D-09 XBig12= 1.78D-09 6.64D-06.
      2 vectors produced by pass  6 Test12= 2.52D-15 3.33D-09 XBig12= 6.40D-13 1.52D-07.
 InvSVY:  IOpt=1 It=  1 EMax= 7.11D-15
 Solved reduced A of dimension   148 with    30 vectors.
 Isotropic polarizability for W=    0.000000       42.80 Bohr**3.
 End of Minotr F.D. properties file   721 does not exist.
 End of Minotr F.D. properties file   722 does not exist.
 End of Minotr F.D. properties file   788 does not exist.

 **********************************************************************

            Population analysis using the SCF Density.

 **********************************************************************

 Orbital symmetries:
       Occupied  (A) (A) (A) (A) (A) (A) (A) (A) (A) (A) (A) (A)
       Virtual   (A) (A) (A) (A) (A) (A) (A) (A) (A) (A) (A) (A)
                 (A) (A) (A) (A) (A) (A) (A) (A) (A) (A) (A) (A)
                 (A) (A) (A) (A) (A) (A) (A) (A) (A) (A) (A) (A)
                 (A) (A) (A) (A) (A) (A) (A) (A) (A) (A) (A) (A)
                 (A) (A) (A) (A) (A) (A) (A) (A) (A) (A) (A) (A)
                 (A) (A) (A)
 The electronic state is 1-A.
 Alpha  occ. eigenvalues --  -10.20880 -10.19537 -10.19451  -0.78634  -0.65925
 Alpha  occ. eigenvalues --   -0.57323  -0.47297  -0.41949  -0.41304  -0.37410
 Alpha  occ. eigenvalues --   -0.33917  -0.14803
 Alpha virt. eigenvalues --   -0.09873   0.11124   0.12412   0.14729   0.15696
 Alpha virt. eigenvalues --    0.19414   0.20871   0.27057   0.29294   0.50524
 Alpha virt. eigenvalues --    0.52901   0.55193   0.57376   0.57831   0.64386
 Alpha virt. eigenvalues --    0.64884   0.69673   0.79782   0.81506   0.84897
 Alpha virt. eigenvalues --    0.86320   0.89990   0.91155   0.92847   1.00777
 Alpha virt. eigenvalues --    1.12302   1.27976   1.34742   1.46346   1.50894
 Alpha virt. eigenvalues --    1.59600   1.74900   1.84558   1.88101   1.92564
 Alpha virt. eigenvalues --    1.95602   1.97695   2.06180   2.08064   2.13727
 Alpha virt. eigenvalues --    2.23477   2.31108   2.34941   2.38606   2.44059
 Alpha virt. eigenvalues --    2.48889   2.52347   2.55409   2.61221   2.68372
 Alpha virt. eigenvalues --    2.73234   2.76421   2.89970   2.98446   3.16834
 Alpha virt. eigenvalues --    3.30695   3.33166   3.41402   3.52819   3.63506
 Alpha virt. eigenvalues --    4.23104   4.34138   4.57328
          Condensed to atoms (all electrons):
               1          2          3          4          5          6
     1  C    5.309230   0.342813   0.050671  -0.026009   0.388481  -0.183521
     2  C    0.342813   4.782716   0.366162   0.391404  -0.035126   0.388396
     3  C    0.050671   0.366162   5.165381  -0.033476  -0.003436  -0.062937
     4  H   -0.026009   0.391404  -0.033476   0.603412   0.004135  -0.039159
     5  H    0.388481  -0.035126  -0.003436   0.004135   0.564807  -0.009519
     6  H   -0.183521   0.388396  -0.062937  -0.039159  -0.009519   0.843960
     7  H    0.364049  -0.033888   0.005529  -0.005663  -0.041936   0.011611
     8  H   -0.006744  -0.033412   0.391360   0.004636   0.003448  -0.005678
     9  H    0.003186  -0.034442   0.387979  -0.007475  -0.000071   0.003629
               7          8          9
     1  C    0.364049  -0.006744   0.003186
     2  C   -0.033888  -0.033412  -0.034442
     3  C    0.005529   0.391360   0.387979
     4  H   -0.005663   0.004636  -0.007475
     5  H   -0.041936   0.003448  -0.000071
     6  H    0.011611  -0.005678   0.003629
     7  H    0.580771  -0.000196  -0.000136
     8  H   -0.000196   0.571286  -0.040544
     9  H   -0.000136  -0.040544   0.570196
 Mulliken charges:
               1
     1  C   -0.242156
     2  C   -0.134623
     3  C   -0.267233
     4  H    0.108196
     5  H    0.129215
     6  H    0.053218
     7  H    0.119859
     8  H    0.115844
     9  H    0.117680
 Sum of Mulliken charges =  -0.00000
 Mulliken charges with hydrogens summed into heavy atoms:
               1
     1  C    0.006918
     2  C    0.026792
     3  C   -0.033710
 APT charges:
               1
     1  C   -0.241478
     2  C    0.338075
     3  C   -0.232632
     4  H    0.030299
     5  H    0.031000
     6  H   -0.059837
     7  H    0.065438
     8  H    0.018562
     9  H    0.050572
 Sum of APT charges =   0.00000
 APT charges with hydrogens summed into heavy atoms:
               1
     1  C   -0.145039
     2  C    0.308537
     3  C   -0.163498
 Electronic spatial extent (au):  <R**2>=            191.1959
 Charge=             -0.0000 electrons
 Dipole moment (field-independent basis, Debye):
    X=              0.2533    Y=             -0.0381    Z=             -0.0967  Tot=              0.2738
 Quadrupole moment (field-independent basis, Debye-Ang):
   XX=            -18.7592   YY=            -19.7752   ZZ=            -21.5154
   XY=             -0.5035   XZ=              0.1490   YZ=             -1.9423
 Traceless Quadrupole moment (field-independent basis, Debye-Ang):
   XX=              1.2574   YY=              0.2414   ZZ=             -1.4988
   XY=             -0.5035   XZ=              0.1490   YZ=             -1.9423
 Octapole moment (field-independent basis, Debye-Ang**2):
  XXX=             -0.8812  YYY=              0.2507  ZZZ=             -0.3246  XYY=             -0.2451
  XXY=             -0.3260  XXZ=             -1.7337  XZZ=              1.2753  YZZ=             -0.1233
  YYZ=              0.6550  XYZ=              0.3551
 Hexadecapole moment (field-independent basis, Debye-Ang**3):
 XXXX=           -156.4103 YYYY=            -58.3495 ZZZZ=            -39.6234 XXXY=             -2.2380
 XXXZ=             -0.3756 YYYX=             -0.4859 YYYZ=             -4.7641 ZZZX=             -0.3969
 ZZZY=             -2.9684 XXYY=            -36.8484 XXZZ=            -33.2680 YYZZ=            -17.5368
 XXYZ=             -2.6624 YYXZ=              0.1976 ZZXY=             -0.2577
 N-N= 7.008469953285D+01 E-N=-4.119838078353D+02  KE= 1.166384163523D+02
  Exact polarizability:  74.494   0.253  28.731   0.059  -2.107  25.176
 Approx polarizability: 346.199   9.852  37.480   9.038  -2.587  34.155
 Calling FoFJK, ICntrl=    100127 FMM=F ISym2X=0 I1Cent= 0 IOpClX= 0 NMat=1 NMatS=1 NMatT=0.
 ***** Axes restored to original set *****
 -------------------------------------------------------------------
 Center     Atomic                   Forces (Hartrees/Bohr)
 Number     Number              X              Y              Z
 -------------------------------------------------------------------
      1        6           0.029346324   -0.062575156   -0.000376473
      2        6          -0.080720412    0.111056642    0.008977094
      3        6          -0.006394255   -0.013912278   -0.007032017
      4        1          -0.000478061   -0.013254105    0.004760211
      5        1          -0.002397405    0.006825626   -0.008632718
      6        1           0.059232149    0.002298837    0.011620712
      7        1           0.002329782   -0.016167297   -0.001618517
      8        1          -0.002823686    0.006627007   -0.007184622
      9        1           0.001905563   -0.020899276   -0.000513668
 -------------------------------------------------------------------
 Cartesian Forces:  Max     0.111056642 RMS     0.032647751
 FormGI is forming the generalized inverse of G from B-inverse, IUseBI=4.

 GradGradGradGradGradGradGradGradGradGradGradGradGradGradGradGradGradGrad
 Berny optimization.
 Internal  Forces:  Max     0.084279418 RMS     0.026003162
 Search for a saddle point.
 Step number   1 out of a maximum of  100
 All quantities printed in internal units (Hartrees-Bohrs-Radians)
 Swapping is turned off.
 Second derivative matrix not updated -- analytic derivatives used.
 ITU=  0
     Eigenvalues ---   -0.01177  -0.00369   0.00556   0.01087   0.01163
     Eigenvalues ---    0.06747   0.08634   0.09760   0.10095   0.10596
     Eigenvalues ---    0.11145   0.12444   0.14519   0.17034   0.28074
     Eigenvalues ---    0.36928   0.38277   0.38514   0.39767   0.39978
     Eigenvalues ---    0.40536
 Eigenvectors required to have negative eigenvalues:
                          A4        D11       D7        D12       D1
   1                   -0.45830   0.44850   0.38062   0.32639  -0.28557
                          D8        D4        D5        A8        D10
   1                    0.25851  -0.19086   0.17934   0.17463  -0.12551
 RFO step:  Lambda0=7.000287986D-02 Lambda=-7.66756787D-02.
 Linear search not attempted -- option 19 set.
 Maximum step size (   0.300) exceeded in Quadratic search.
    -- Step size scaled by   0.584
 Iteration  1 RMS(Cart)=  0.07886660 RMS(Int)=  0.04662753
 Iteration  2 RMS(Cart)=  0.03431380 RMS(Int)=  0.00789057
 Iteration  3 RMS(Cart)=  0.00124289 RMS(Int)=  0.00775370
 Iteration  4 RMS(Cart)=  0.00001003 RMS(Int)=  0.00775370
 Iteration  5 RMS(Cart)=  0.00000021 RMS(Int)=  0.00775370
 Variable       Old X    -DE/DX   Delta X   Delta X   Delta X     New X
                                 (Linear)    (Quad)   (Total)
    R1        2.84383   0.00785   0.00000   0.04463   0.04463   2.88845
    R2        2.02213   0.01027   0.00000   0.01516   0.01516   2.03728
    R3        2.03085   0.01042   0.00000   0.01515   0.01515   2.04601
    R4        2.73992   0.00889   0.00000   0.02331   0.02331   2.76323
    R5        2.04159   0.00548   0.00000   0.01128   0.01128   2.05288
    R6        2.24366  -0.02713   0.00000  -0.05112  -0.05112   2.19254
    R7        2.02157   0.00867   0.00000   0.00956   0.00956   2.03113
    R8        2.03467   0.00510   0.00000   0.00684   0.00684   2.04151
    A1        2.08005  -0.00433   0.00000  -0.00244  -0.01067   2.06938
    A2        2.16391   0.00084   0.00000  -0.03261  -0.04079   2.12312
    A3        2.02300   0.00255   0.00000  -0.00496  -0.01395   2.00905
    A4        1.92148  -0.08014   0.00000   0.13416   0.13025   2.05173
    A5        2.08223   0.01287   0.00000   0.01629   0.01008   2.09231
    A6        1.50244   0.08428   0.00000   0.12992   0.14029   1.64272
    A7        2.04195   0.02848   0.00000  -0.01054  -0.02498   2.01697
    A8        2.05881  -0.01317   0.00000  -0.15868  -0.17134   1.88747
    A9        1.78969  -0.01389   0.00000  -0.12548  -0.14004   1.64965
   A10        2.13413  -0.00609   0.00000   0.00672  -0.00324   2.13089
   A11        2.07305   0.00703   0.00000   0.02411   0.01415   2.08720
   A12        2.04942   0.00106   0.00000   0.02555   0.01558   2.06501
    D1       -0.92900  -0.01781   0.00000   0.09393   0.08951  -0.83949
    D2        2.92076   0.02226   0.00000  -0.08135  -0.08542   2.83534
    D3        1.13719  -0.00960   0.00000  -0.01082  -0.00552   1.13167
    D4        2.01188  -0.02334   0.00000  -0.15128  -0.15357   1.85831
    D5       -0.42154   0.01673   0.00000  -0.32655  -0.32850  -0.75004
    D6       -2.20511  -0.01512   0.00000  -0.25602  -0.24860  -2.45371
    D7        0.88088   0.03399   0.00000  -0.27917  -0.28516   0.59573
    D8       -2.51280   0.04354   0.00000  -0.01271  -0.01878  -2.53158
    D9       -2.95076  -0.01065   0.00000  -0.09825  -0.10558  -3.05634
   D10       -0.06126  -0.00110   0.00000   0.16821   0.16080   0.09954
   D11       -0.80198  -0.01627   0.00000  -0.44571  -0.43227  -1.23426
   D12        2.08751  -0.00673   0.00000  -0.17925  -0.16589   1.92162
         Item               Value     Threshold  Converged?
 Maximum Force            0.084279     0.000450     NO 
 RMS     Force            0.026003     0.000300     NO 
 Maximum Displacement     0.348897     0.001800     NO 
 RMS     Displacement     0.103773     0.001200     NO 
 Predicted change in Energy= 4.041593D-04
 GradGradGradGradGradGradGradGradGradGradGradGradGradGradGradGradGradGrad

                          Input orientation:                          
 ---------------------------------------------------------------------
 Center     Atomic      Atomic             Coordinates (Angstroms)
 Number     Number       Type             X           Y           Z
 ---------------------------------------------------------------------
      1          6           0       -2.613708   -0.375309    1.363150
      2          6           0       -1.262789    0.183526    1.809295
      3          6           0       -0.141705    0.067311    0.877736
      4          1           0       -0.998591    0.183902    2.863014
      5          1           0       -2.980823   -0.115637    0.383321
      6          1           0       -1.623249    1.286345    1.805051
      7          1           0       -3.012173   -1.294163    1.774457
      8          1           0       -0.274643    0.133311   -0.186797
      9          1           0        0.854152   -0.103260    1.260190
 ---------------------------------------------------------------------
                    Distance matrix (angstroms):
                    1          2          3          4          5
     1  C    0.000000
     2  C    1.528504   0.000000
     3  C    2.557800   1.462238   0.000000
     4  H    2.273965   1.086336   2.165451   0.000000
     5  H    1.078084   2.252674   2.887647   3.188706   0.000000
     6  H    1.984283   1.160241   2.130946   1.650716   2.414513
     7  H    1.082700   2.290223   3.301107   2.724728   1.823503
     8  H    2.851711   2.227855   1.074830   3.134966   2.776764
     9  H    3.480038   2.205720   1.080322   2.466610   3.933965
                    6          7          8          9
     6  H    0.000000
     7  H    2.930710   0.000000
     8  H    2.667523   3.657631   0.000000
     9  H    2.892298   4.078135   1.850382   0.000000
 Stoichiometry    C3H6
 Framework group  C1[X(C3H6)]
 Deg. of freedom    21
 Full point group                 C1      NOp   1
 Largest Abelian subgroup         C1      NOp   1
 Largest concise Abelian subgroup C1      NOp   1
                         Standard orientation:                         
 ---------------------------------------------------------------------
 Center     Atomic      Atomic             Coordinates (Angstroms)
 Number     Number       Type             X           Y           Z
 ---------------------------------------------------------------------
      1          6           0        1.304392   -0.204292   -0.048376
      2          6           0       -0.040555    0.512522    0.068336
      3          6           0       -1.251715   -0.295661   -0.066085
      4          1           0       -0.130866    1.548351   -0.246352
      5          1           0        1.456832   -1.109574    0.516862
      6          1           0        0.099293    0.769926    1.190987
      7          1           0        1.929323   -0.100093   -0.926352
      8          1           0       -1.302894   -1.310418    0.284497
      9          1           0       -2.124422    0.126394   -0.542894
 ---------------------------------------------------------------------
 Rotational constants (GHZ):          36.5027402           9.2662081           8.1318913
 Standard basis: 6-31G(d,p) (6D, 7F)
 There are    75 symmetry adapted cartesian basis functions of A   symmetry.
 There are    75 symmetry adapted basis functions of A   symmetry.
    75 basis functions,   126 primitive gaussians,    75 cartesian basis functions
    12 alpha electrons       12 beta electrons
       nuclear repulsion energy        69.0905367518 Hartrees.
 NAtoms=    9 NActive=    9 NUniq=    9 SFac= 1.00D+00 NAtFMM=   60 NAOKFM=F Big=F
 Integral buffers will be    131072 words long.
 Raffenetti 2 integral format.
 Two-electron integral symmetry is turned on.
 One-electron integrals computed using PRISM.
 NBasis=    75 RedAO= T EigKep=  6.38D-03  NBF=    75
 NBsUse=    75 1.00D-06 EigRej= -1.00D+00 NBFU=    75
 Initial guess from the checkpoint file:  "/scratch/brown/zhao922/pyGSM/new-benchmarking/R1-3/TS-folder/Gau-216867.chk"
 B after Tr=     0.000000   -0.000000    0.000000
         Rot=    0.999934    0.001511    0.006198   -0.009538 Ang=   1.31 deg.
 ExpMin= 1.61D-01 ExpMax= 3.05D+03 ExpMxC= 4.57D+02 IAcc=3 IRadAn=         5 AccDes= 0.00D+00
 Harris functional with IExCor=  402 and IRadAn=       5 diagonalized for initial guess.
 HarFok:  IExCor=  402 AccDes= 0.00D+00 IRadAn=         5 IDoV= 1 UseB2=F ITyADJ=14
 ICtDFT=  3500011 ScaDFX=  1.000000  1.000000  1.000000  1.000000
 FoFCou: FMM=F IPFlag=           0 FMFlag=      100000 FMFlg1=           0
         NFxFlg=           0 DoJE=T BraDBF=F KetDBF=T FulRan=T
         wScrn=  0.000000 ICntrl=       500 IOpCl=  0 I1Cent=   200000004 NGrid=           0
         NMat0=    1 NMatS0=      1 NMatT0=    0 NMatD0=    1 NMtDS0=    0 NMtDT0=    0
 Petite list used in FoFCou.
 Keep R1 ints in memory in canonical form, NReq=25608259.
 Requested convergence on RMS density matrix=1.00D-08 within 128 cycles.
 Requested convergence on MAX density matrix=1.00D-06.
 Requested convergence on             energy=1.00D-06.
 No special actions if energy rises.
 Integral accuracy reduced to 1.0D-05 until final iterations.
 Initial convergence to 1.0D-05 achieved.  Increase integral accuracy.
 SCF Done:  E(RB3LYP) =  -117.733998281     A.U. after   15 cycles
            NFock= 15  Conv=0.96D-08     -V/T= 2.0098
 DoSCS=F DFT=T ScalE2(SS,OS)=  1.000000  1.000000
 Range of M.O.s used for correlation:     1    75
 NBasis=    75 NAE=    12 NBE=    12 NFC=     0 NFV=     0
 NROrb=     75 NOA=    12 NOB=    12 NVA=    63 NVB=    63

 **** Warning!!: The smallest alpha delta epsilon is  0.41174687D-01

 Symmetrizing basis deriv contribution to polar:
 IMax=3 JMax=2 DiffMx= 0.00D+00
 G2DrvN: will do    10 centers at a time, making    1 passes.
 Calling FoFCou, ICntrl=  3107 FMM=F I1Cent=   0 AccDes= 0.00D+00.
 End of G2Drv F.D. properties file   721 does not exist.
 End of G2Drv F.D. properties file   722 does not exist.
 End of G2Drv F.D. properties file   788 does not exist.
          IDoAtm=111111111
          Differentiating once with respect to electric field.
                with respect to dipole field.
          Differentiating once with respect to nuclear coordinates.
 Keep R1 ints in memory in canonical form, NReq=25532597.
          There are    30 degrees of freedom in the 1st order CPHF.  IDoFFX=6 NUNeed=     3.
     27 vectors produced by pass  0 Test12= 2.52D-15 3.33D-09 XBig12= 2.62D+03 5.09D+01.
 AX will form    27 AO Fock derivatives at one time.
     27 vectors produced by pass  1 Test12= 2.52D-15 3.33D-09 XBig12= 5.95D+02 6.73D+00.
     27 vectors produced by pass  2 Test12= 2.52D-15 3.33D-09 XBig12= 9.43D+00 7.05D-01.
     27 vectors produced by pass  3 Test12= 2.52D-15 3.33D-09 XBig12= 1.22D-02 1.64D-02.
     27 vectors produced by pass  4 Test12= 2.52D-15 3.33D-09 XBig12= 7.22D-06 5.85D-04.
     11 vectors produced by pass  5 Test12= 2.52D-15 3.33D-09 XBig12= 4.10D-09 1.01D-05.
      1 vectors produced by pass  6 Test12= 2.52D-15 3.33D-09 XBig12= 1.53D-12 2.01D-07.
      1 vectors produced by pass  7 Test12= 2.52D-15 3.33D-09 XBig12= 5.83D-16 3.88D-09.
 InvSVY:  IOpt=1 It=  1 EMax= 4.97D-14
 Solved reduced A of dimension   148 with    30 vectors.
 Isotropic polarizability for W=    0.000000       45.21 Bohr**3.
 End of Minotr F.D. properties file   721 does not exist.
 End of Minotr F.D. properties file   722 does not exist.
 End of Minotr F.D. properties file   788 does not exist.
 Calling FoFJK, ICntrl=    100127 FMM=F ISym2X=0 I1Cent= 0 IOpClX= 0 NMat=1 NMatS=1 NMatT=0.
 ***** Axes restored to original set *****
 -------------------------------------------------------------------
 Center     Atomic                   Forces (Hartrees/Bohr)
 Number     Number              X              Y              Z
 -------------------------------------------------------------------
      1        6           0.025016585   -0.047284016    0.002057574
      2        6          -0.048385253    0.116739866    0.008404717
      3        6          -0.006272448   -0.023401071   -0.000822053
      4        1          -0.000102033   -0.021598376    0.003765201
      5        1          -0.003020998    0.006798163   -0.003017237
      6        1           0.027698077   -0.007174127    0.002526270
      7        1           0.005277928   -0.011057673   -0.005727233
      8        1          -0.002191425    0.004144662   -0.004866370
      9        1           0.001979567   -0.017167428   -0.002320869
 -------------------------------------------------------------------
 Cartesian Forces:  Max     0.116739866 RMS     0.028150530
 FormGI is forming the generalized inverse of G from B-inverse, IUseBI=4.

 GradGradGradGradGradGradGradGradGradGradGradGradGradGradGradGradGradGrad
 Berny optimization.
 Internal  Forces:  Max     0.060434750 RMS     0.018569154
 Search for a saddle point.
 Step number   2 out of a maximum of  100
 All quantities printed in internal units (Hartrees-Bohrs-Radians)
 Swapping is turned off.
 Second derivative matrix not updated -- analytic derivatives used.
 ITU=  0  0
     Eigenvalues ---   -0.01338  -0.00171   0.00622   0.01061   0.01497
     Eigenvalues ---    0.06423   0.09004   0.09679   0.10199   0.10897
     Eigenvalues ---    0.11542   0.12497   0.16162   0.19500   0.26703
     Eigenvalues ---    0.35378   0.36443   0.36897   0.37532   0.38136
     Eigenvalues ---    0.38971
 Eigenvectors required to have negative eigenvalues:
                          D5        D7        A4        D11       D8
   1                    0.44221   0.39893  -0.34879   0.33135   0.31729
                          D2        D6        D12       A8        D4
   1                    0.27392   0.26172   0.24972   0.16397   0.11068
 RFO step:  Lambda0=4.842448453D-02 Lambda=-6.66285147D-02.
 Linear search not attempted -- option 19 set.
 Iteration  1 RMS(Cart)=  0.11731364 RMS(Int)=  0.15320356
 Iteration  2 RMS(Cart)=  0.07533008 RMS(Int)=  0.08328858
 Iteration  3 RMS(Cart)=  0.05412480 RMS(Int)=  0.02237942
 Iteration  4 RMS(Cart)=  0.01922053 RMS(Int)=  0.00605244
 Iteration  5 RMS(Cart)=  0.00056451 RMS(Int)=  0.00601914
 Iteration  6 RMS(Cart)=  0.00000680 RMS(Int)=  0.00601913
 Iteration  7 RMS(Cart)=  0.00000013 RMS(Int)=  0.00601913
 Variable       Old X    -DE/DX   Delta X   Delta X   Delta X     New X
                                 (Linear)    (Quad)   (Total)
    R1        2.88845  -0.00331   0.00000  -0.00412  -0.00412   2.88434
    R2        2.03728   0.00541   0.00000   0.01482   0.01482   2.05210
    R3        2.04601   0.00527   0.00000   0.01979   0.01979   2.06579
    R4        2.76323   0.00303   0.00000  -0.02276  -0.02276   2.74047
    R5        2.05288   0.00362   0.00000   0.01476   0.01476   2.06764
    R6        2.19254  -0.01543   0.00000  -0.05694  -0.05694   2.13560
    R7        2.03113   0.00535   0.00000   0.01396   0.01396   2.04509
    R8        2.04151   0.00371   0.00000   0.01548   0.01548   2.05699
    A1        2.06938  -0.00165   0.00000   0.00963  -0.00547   2.06391
    A2        2.12312  -0.00225   0.00000  -0.11117  -0.12669   1.99643
    A3        2.00905   0.00205   0.00000  -0.02511  -0.04581   1.96324
    A4        2.05173  -0.06043   0.00000  -0.04139  -0.04116   2.01057
    A5        2.09231   0.01203   0.00000   0.00923   0.00898   2.10129
    A6        1.64272   0.04802   0.00000   0.12768   0.12744   1.77017
    A7        2.01697   0.02548   0.00000   0.04319   0.04334   2.06031
    A8        1.88747   0.00266   0.00000  -0.08181  -0.08033   1.80714
    A9        1.64965  -0.00425   0.00000  -0.06862  -0.06866   1.58099
   A10        2.13089  -0.00480   0.00000  -0.02155  -0.02857   2.10232
   A11        2.08720   0.00532   0.00000   0.03089   0.02386   2.11107
   A12        2.06501  -0.00061   0.00000  -0.01206  -0.01928   2.04573
    D1       -0.83949  -0.02066   0.00000  -0.31844  -0.32201  -1.16151
    D2        2.83534   0.01819   0.00000  -0.35322  -0.35703   2.47831
    D3        1.13167  -0.00696   0.00000  -0.35004  -0.35511   0.77656
    D4        1.85831  -0.02489   0.00000  -0.64948  -0.64474   1.21357
    D5       -0.75004   0.01395   0.00000  -0.68426  -0.67976  -1.42980
    D6       -2.45371  -0.01120   0.00000  -0.68108  -0.67784  -3.13155
    D7        0.59573   0.02587   0.00000  -0.22588  -0.22521   0.37052
    D8       -2.53158   0.03374   0.00000   0.00127   0.00099  -2.53059
    D9       -3.05634  -0.01394   0.00000  -0.20149  -0.20068   3.02617
   D10        0.09954  -0.00607   0.00000   0.02566   0.02552   0.12506
   D11       -1.23426  -0.00576   0.00000  -0.31124  -0.31130  -1.54556
   D12        1.92162   0.00212   0.00000  -0.08409  -0.08510   1.83652
         Item               Value     Threshold  Converged?
 Maximum Force            0.060435     0.000450     NO 
 RMS     Force            0.018569     0.000300     NO 
 Maximum Displacement     0.706838     0.001800     NO 
 RMS     Displacement     0.243545     0.001200     NO 
 Predicted change in Energy=-2.212181D-02
 GradGradGradGradGradGradGradGradGradGradGradGradGradGradGradGradGradGrad

                          Input orientation:                          
 ---------------------------------------------------------------------
 Center     Atomic      Atomic             Coordinates (Angstroms)
 Number     Number       Type             X           Y           Z
 ---------------------------------------------------------------------
      1          6           0       -2.629802   -0.359777    1.405246
      2          6           0       -1.296161    0.236885    1.846911
      3          6           0       -0.198816    0.051803    0.917052
      4          1           0       -1.058399    0.334331    2.910458
      5          1           0       -3.124384    0.071269    0.539902
      6          1           0       -1.513893    1.343940    1.782300
      7          1           0       -2.655847   -1.452626    1.400415
      8          1           0       -0.393670   -0.155208   -0.127155
      9          1           0        0.817444   -0.104591    1.274287
 ---------------------------------------------------------------------
                    Distance matrix (angstroms):
                    1          2          3          4          5
     1  C    0.000000
     2  C    1.526326   0.000000
     3  C    2.513449   1.450193   0.000000
     4  H    2.284022   1.094147   2.189149   0.000000
     5  H    1.085925   2.253464   2.949843   3.155477   0.000000
     6  H    2.071249   1.130112   2.036590   1.580989   2.399360
     7  H    1.093170   2.214171   2.921292   2.832893   1.811702
     8  H    2.718527   2.205712   1.082216   3.147794   2.820116
     9  H    3.459158   2.216265   1.088512   2.527547   4.013509
                    6          7          8          9
     6  H    0.000000
     7  H    3.044779   0.000000
     8  H    2.673643   3.022285   0.000000
     9  H    2.791317   3.727848   1.852943   0.000000
 Stoichiometry    C3H6
 Framework group  C1[X(C3H6)]
 Deg. of freedom    21
 Full point group                 C1      NOp   1
 Largest Abelian subgroup         C1      NOp   1
 Largest concise Abelian subgroup C1      NOp   1
                         Standard orientation:                         
 ---------------------------------------------------------------------
 Center     Atomic      Atomic             Coordinates (Angstroms)
 Number     Number       Type             X           Y           Z
 ---------------------------------------------------------------------
      1          6           0        1.302801   -0.167263   -0.052001
      2          6           0       -0.046251    0.544988   -0.002693
      3          6           0       -1.204711   -0.327242    0.012941
      4          1           0       -0.160596    1.544515   -0.432842
      5          1           0        1.603101   -0.759533    0.807225
      6          1           0       -0.030387    0.982550    1.039152
      7          1           0        1.513945   -0.668969   -1.000015
      8          1           0       -1.111168   -1.357783    0.329842
      9          1           0       -2.125925   -0.043685   -0.492846
 ---------------------------------------------------------------------
 Rotational constants (GHZ):          34.2528211           9.7405910           8.4242757
 Standard basis: 6-31G(d,p) (6D, 7F)
 There are    75 symmetry adapted cartesian basis functions of A   symmetry.
 There are    75 symmetry adapted basis functions of A   symmetry.
    75 basis functions,   126 primitive gaussians,    75 cartesian basis functions
    12 alpha electrons       12 beta electrons
       nuclear repulsion energy        69.5466447498 Hartrees.
 NAtoms=    9 NActive=    9 NUniq=    9 SFac= 1.00D+00 NAtFMM=   60 NAOKFM=F Big=F
 Integral buffers will be    131072 words long.
 Raffenetti 2 integral format.
 Two-electron integral symmetry is turned on.
 One-electron integrals computed using PRISM.
 NBasis=    75 RedAO= T EigKep=  6.14D-03  NBF=    75
 NBsUse=    75 1.00D-06 EigRej= -1.00D+00 NBFU=    75
 Initial guess from the checkpoint file:  "/scratch/brown/zhao922/pyGSM/new-benchmarking/R1-3/TS-folder/Gau-216867.chk"
 B after Tr=     0.000000   -0.000000   -0.000000
         Rot=    0.995317    0.094981   -0.012564   -0.012853 Ang=  11.09 deg.
 ExpMin= 1.61D-01 ExpMax= 3.05D+03 ExpMxC= 4.57D+02 IAcc=3 IRadAn=         5 AccDes= 0.00D+00
 Harris functional with IExCor=  402 and IRadAn=       5 diagonalized for initial guess.
 HarFok:  IExCor=  402 AccDes= 0.00D+00 IRadAn=         5 IDoV= 1 UseB2=F ITyADJ=14
 ICtDFT=  3500011 ScaDFX=  1.000000  1.000000  1.000000  1.000000
 FoFCou: FMM=F IPFlag=           0 FMFlag=      100000 FMFlg1=           0
         NFxFlg=           0 DoJE=T BraDBF=F KetDBF=T FulRan=T
         wScrn=  0.000000 ICntrl=       500 IOpCl=  0 I1Cent=   200000004 NGrid=           0
         NMat0=    1 NMatS0=      1 NMatT0=    0 NMatD0=    1 NMtDS0=    0 NMtDT0=    0
 Petite list used in FoFCou.
 Keep R1 ints in memory in canonical form, NReq=25608259.
 Requested convergence on RMS density matrix=1.00D-08 within 128 cycles.
 Requested convergence on MAX density matrix=1.00D-06.
 Requested convergence on             energy=1.00D-06.
 No special actions if energy rises.
 Integral accuracy reduced to 1.0D-05 until final iterations.
 Initial convergence to 1.0D-05 achieved.  Increase integral accuracy.
 SCF Done:  E(RB3LYP) =  -117.752889368     A.U. after   15 cycles
            NFock= 15  Conv=0.30D-08     -V/T= 2.0101
 DoSCS=F DFT=T ScalE2(SS,OS)=  1.000000  1.000000
 Range of M.O.s used for correlation:     1    75
 NBasis=    75 NAE=    12 NBE=    12 NFC=     0 NFV=     0
 NROrb=     75 NOA=    12 NOB=    12 NVA=    63 NVB=    63

 **** Warning!!: The smallest alpha delta epsilon is  0.66059964D-01

 Symmetrizing basis deriv contribution to polar:
 IMax=3 JMax=2 DiffMx= 0.00D+00
 G2DrvN: will do    10 centers at a time, making    1 passes.
 Calling FoFCou, ICntrl=  3107 FMM=F I1Cent=   0 AccDes= 0.00D+00.
 End of G2Drv F.D. properties file   721 does not exist.
 End of G2Drv F.D. properties file   722 does not exist.
 End of G2Drv F.D. properties file   788 does not exist.
          IDoAtm=111111111
          Differentiating once with respect to electric field.
                with respect to dipole field.
          Differentiating once with respect to nuclear coordinates.
 Keep R1 ints in memory in canonical form, NReq=25532590.
          There are    30 degrees of freedom in the 1st order CPHF.  IDoFFX=6 NUNeed=     3.
     27 vectors produced by pass  0 Test12= 2.52D-15 3.33D-09 XBig12= 1.08D+03 3.25D+01.
 AX will form    27 AO Fock derivatives at one time.
     27 vectors produced by pass  1 Test12= 2.52D-15 3.33D-09 XBig12= 2.53D+02 4.51D+00.
     27 vectors produced by pass  2 Test12= 2.52D-15 3.33D-09 XBig12= 3.83D+00 4.50D-01.
     27 vectors produced by pass  3 Test12= 2.52D-15 3.33D-09 XBig12= 6.19D-03 1.86D-02.
     27 vectors produced by pass  4 Test12= 2.52D-15 3.33D-09 XBig12= 3.49D-06 3.91D-04.
     11 vectors produced by pass  5 Test12= 2.52D-15 3.33D-09 XBig12= 1.73D-09 7.48D-06.
      3 vectors produced by pass  6 Test12= 2.52D-15 3.33D-09 XBig12= 6.79D-13 1.49D-07.
 InvSVY:  IOpt=1 It=  1 EMax= 2.84D-14
 Solved reduced A of dimension   149 with    30 vectors.
 Isotropic polarizability for W=    0.000000       43.82 Bohr**3.
 End of Minotr F.D. properties file   721 does not exist.
 End of Minotr F.D. properties file   722 does not exist.
 End of Minotr F.D. properties file   788 does not exist.
 Calling FoFJK, ICntrl=    100127 FMM=F ISym2X=0 I1Cent= 0 IOpClX= 0 NMat=1 NMatS=1 NMatT=0.
 ***** Axes restored to original set *****
 -------------------------------------------------------------------
 Center     Atomic                   Forces (Hartrees/Bohr)
 Number     Number              X              Y              Z
 -------------------------------------------------------------------
      1        6           0.030688950   -0.035741273    0.005745818
      2        6          -0.031882587    0.083352950   -0.005161477
      3        6           0.002767290   -0.022967390    0.005342710
      4        1           0.002914944   -0.021639793    0.002627160
      5        1          -0.004638345    0.006512905    0.003795660
      6        1           0.001514955   -0.001861363   -0.004441993
      7        1           0.000828096   -0.000857188   -0.004533848
      8        1          -0.001038023    0.007680849   -0.002802458
      9        1          -0.001155279   -0.014479698   -0.000571572
 -------------------------------------------------------------------
 Cartesian Forces:  Max     0.083352950 RMS     0.020812708
 FormGI is forming the generalized inverse of G from B-inverse, IUseBI=4.

 GradGradGradGradGradGradGradGradGradGradGradGradGradGradGradGradGradGrad
 Berny optimization.
 Internal  Forces:  Max     0.026969159 RMS     0.010772310
 Search for a saddle point.
 Step number   3 out of a maximum of  100
 All quantities printed in internal units (Hartrees-Bohrs-Radians)
 Swapping is turned off.
 Second derivative matrix not updated -- analytic derivatives used.
 ITU=  0  0  0
     Eigenvalues ---   -0.01897   0.00116   0.01309   0.01686   0.02501
     Eigenvalues ---    0.05723   0.09119   0.10344   0.10629   0.11614
     Eigenvalues ---    0.12435   0.13423   0.15139   0.24746   0.27926
     Eigenvalues ---    0.34098   0.34587   0.35388   0.36265   0.37148
     Eigenvalues ---    0.37590
 Eigenvectors required to have negative eigenvalues:
                          D5        D7        D2        D8        A4
   1                    0.41456   0.37114   0.35765   0.35176  -0.32733
                          D11       D12       D6        D3        A8
   1                    0.30434   0.28496   0.21208   0.15516   0.13747
 RFO step:  Lambda0=2.818590550D-02 Lambda=-3.61133528D-02.
 Linear search not attempted -- option 19 set.
 Iteration  1 RMS(Cart)=  0.13072004 RMS(Int)=  0.08643201
 Iteration  2 RMS(Cart)=  0.08321880 RMS(Int)=  0.00839233
 Iteration  3 RMS(Cart)=  0.00874007 RMS(Int)=  0.00176734
 Iteration  4 RMS(Cart)=  0.00010960 RMS(Int)=  0.00176476
 Iteration  5 RMS(Cart)=  0.00000005 RMS(Int)=  0.00176476
 Variable       Old X    -DE/DX   Delta X   Delta X   Delta X     New X
                                 (Linear)    (Quad)   (Total)
    R1        2.88434  -0.01317   0.00000  -0.09071  -0.09071   2.79363
    R2        2.05210   0.00167   0.00000   0.00329   0.00329   2.05539
    R3        2.06579   0.00086   0.00000   0.00178   0.00178   2.06757
    R4        2.74047   0.00297   0.00000   0.01507   0.01507   2.75554
    R5        2.06764   0.00126   0.00000   0.01687   0.01687   2.08451
    R6        2.13560  -0.00186   0.00000  -0.00286  -0.00286   2.13274
    R7        2.04509   0.00142   0.00000   0.00702   0.00702   2.05211
    R8        2.05699   0.00081   0.00000   0.00171   0.00171   2.05870
    A1        2.06391  -0.00055   0.00000   0.03915   0.03884   2.10275
    A2        1.99643   0.00165   0.00000  -0.01022  -0.01054   1.98588
    A3        1.96324   0.00047   0.00000   0.00339   0.00298   1.96622
    A4        2.01057  -0.02697   0.00000   0.09871   0.09560   2.10617
    A5        2.10129   0.00338   0.00000  -0.06978  -0.06918   2.03211
    A6        1.77017   0.01773   0.00000   0.06474   0.06114   1.83131
    A7        2.06031   0.00817   0.00000  -0.07395  -0.07411   1.98620
    A8        1.80714   0.01169   0.00000   0.01056   0.00453   1.81167
    A9        1.58099   0.00412   0.00000   0.00222   0.00449   1.58549
   A10        2.10232  -0.00207   0.00000  -0.00397  -0.00545   2.09687
   A11        2.11107   0.00178   0.00000  -0.01178  -0.01326   2.09780
   A12        2.04573  -0.00045   0.00000  -0.00494  -0.00652   2.03921
    D1       -1.16151  -0.01962   0.00000  -0.47097  -0.47291  -1.63442
    D2        2.47831   0.01052   0.00000  -0.35859  -0.35972   2.11859
    D3        0.77656  -0.00630   0.00000  -0.38166  -0.37882   0.39774
    D4        1.21357  -0.01745   0.00000  -0.43065  -0.43243   0.78113
    D5       -1.42980   0.01270   0.00000  -0.31827  -0.31924  -1.74905
    D6       -3.13155  -0.00413   0.00000  -0.34133  -0.33834   2.81329
    D7        0.37052   0.02041   0.00000  -0.17088  -0.17008   0.20044
    D8       -2.53059   0.02412   0.00000  -0.06852  -0.06801  -2.59860
    D9        3.02617  -0.01011   0.00000  -0.28080  -0.28070   2.74547
   D10        0.12506  -0.00640   0.00000  -0.17844  -0.17864  -0.05357
   D11       -1.54556   0.00403   0.00000  -0.29571  -0.29616  -1.84172
   D12        1.83652   0.00773   0.00000  -0.19335  -0.19409   1.64243
         Item               Value     Threshold  Converged?
 Maximum Force            0.026969     0.000450     NO 
 RMS     Force            0.010772     0.000300     NO 
 Maximum Displacement     0.600295     0.001800     NO 
 RMS     Displacement     0.206810     0.001200     NO 
 Predicted change in Energy=-6.478866D-03
 GradGradGradGradGradGradGradGradGradGradGradGradGradGradGradGradGradGrad

                          Input orientation:                          
 ---------------------------------------------------------------------
 Center     Atomic      Atomic             Coordinates (Angstroms)
 Number     Number       Type             X           Y           Z
 ---------------------------------------------------------------------
      1          6           0       -2.625555   -0.372098    1.432748
      2          6           0       -1.325158    0.244612    1.770510
      3          6           0       -0.160274    0.038481    0.917979
      4          1           0       -1.082992    0.323151    2.843806
      5          1           0       -3.365251    0.180198    0.857564
      6          1           0       -1.507305    1.356939    1.713174
      7          1           0       -2.550831   -1.420064    1.127351
      8          1           0       -0.275804   -0.410668   -0.063939
      9          1           0        0.839640    0.025477    1.350223
 ---------------------------------------------------------------------
                    Distance matrix (angstroms):
                    1          2          3          4          5
     1  C    0.000000
     2  C    1.478326   0.000000
     3  C    2.551700   1.458168   0.000000
     4  H    2.203169   1.103076   2.154357   0.000000
     5  H    1.087667   2.235979   3.208678   3.028911   0.000000
     6  H    2.078146   1.128599   2.045766   1.589682   2.359820
     7  H    1.094113   2.164966   2.808194   2.852993   1.815738
     8  H    2.786196   2.212632   1.085931   3.105644   3.277648
     9  H    3.488905   2.216080   1.089418   2.452736   4.236480
                    6          7          8          9
     6  H    0.000000
     7  H    3.023885   0.000000
     8  H    2.792698   2.759312   0.000000
     9  H    2.722623   3.692500   1.853185   0.000000
 Stoichiometry    C3H6
 Framework group  C1[X(C3H6)]
 Deg. of freedom    21
 Full point group                 C1      NOp   1
 Largest Abelian subgroup         C1      NOp   1
 Largest concise Abelian subgroup C1      NOp   1
                         Standard orientation:                         
 ---------------------------------------------------------------------
 Center     Atomic      Atomic             Coordinates (Angstroms)
 Number     Number       Type             X           Y           Z
 ---------------------------------------------------------------------
      1          6           0        1.302784   -0.177664   -0.077236
      2          6           0       -0.015247    0.490730   -0.038613
      3          6           0       -1.242231   -0.289708    0.069457
      4          1           0       -0.120751    1.403898   -0.648344
      5          1           0        1.873093   -0.326066    0.836955
      6          1           0       -0.002289    1.104525    0.908394
      7          1           0        1.337656   -1.046397   -0.741442
      8          1           0       -1.196084   -1.347926    0.308814
      9          1           0       -2.163462    0.071818   -0.386026
 ---------------------------------------------------------------------
 Rotational constants (GHZ):          37.6968824           9.4788429           8.2896724
 Standard basis: 6-31G(d,p) (6D, 7F)
 There are    75 symmetry adapted cartesian basis functions of A   symmetry.
 There are    75 symmetry adapted basis functions of A   symmetry.
    75 basis functions,   126 primitive gaussians,    75 cartesian basis functions
    12 alpha electrons       12 beta electrons
       nuclear repulsion energy        69.7474012675 Hartrees.
 NAtoms=    9 NActive=    9 NUniq=    9 SFac= 1.00D+00 NAtFMM=   60 NAOKFM=F Big=F
 Integral buffers will be    131072 words long.
 Raffenetti 2 integral format.
 Two-electron integral symmetry is turned on.
 One-electron integrals computed using PRISM.
 NBasis=    75 RedAO= T EigKep=  5.99D-03  NBF=    75
 NBsUse=    75 1.00D-06 EigRej= -1.00D+00 NBFU=    75
 Initial guess from the checkpoint file:  "/scratch/brown/zhao922/pyGSM/new-benchmarking/R1-3/TS-folder/Gau-216867.chk"
 B after Tr=     0.000000    0.000000    0.000000
         Rot=    0.997111    0.074545   -0.010918    0.009697 Ang=   8.71 deg.
 ExpMin= 1.61D-01 ExpMax= 3.05D+03 ExpMxC= 4.57D+02 IAcc=3 IRadAn=         5 AccDes= 0.00D+00
 Harris functional with IExCor=  402 and IRadAn=       5 diagonalized for initial guess.
 HarFok:  IExCor=  402 AccDes= 0.00D+00 IRadAn=         5 IDoV= 1 UseB2=F ITyADJ=14
 ICtDFT=  3500011 ScaDFX=  1.000000  1.000000  1.000000  1.000000
 FoFCou: FMM=F IPFlag=           0 FMFlag=      100000 FMFlg1=           0
         NFxFlg=           0 DoJE=T BraDBF=F KetDBF=T FulRan=T
         wScrn=  0.000000 ICntrl=       500 IOpCl=  0 I1Cent=   200000004 NGrid=           0
         NMat0=    1 NMatS0=      1 NMatT0=    0 NMatD0=    1 NMtDS0=    0 NMtDT0=    0
 Petite list used in FoFCou.
 Keep R1 ints in memory in canonical form, NReq=25608259.
 Requested convergence on RMS density matrix=1.00D-08 within 128 cycles.
 Requested convergence on MAX density matrix=1.00D-06.
 Requested convergence on             energy=1.00D-06.
 No special actions if energy rises.
 Integral accuracy reduced to 1.0D-05 until final iterations.
 Initial convergence to 1.0D-05 achieved.  Increase integral accuracy.
 SCF Done:  E(RB3LYP) =  -117.759492340     A.U. after   13 cycles
            NFock= 13  Conv=0.96D-08     -V/T= 2.0100
 DoSCS=F DFT=T ScalE2(SS,OS)=  1.000000  1.000000
 Range of M.O.s used for correlation:     1    75
 NBasis=    75 NAE=    12 NBE=    12 NFC=     0 NFV=     0
 NROrb=     75 NOA=    12 NOB=    12 NVA=    63 NVB=    63

 **** Warning!!: The smallest alpha delta epsilon is  0.68081968D-01

 Symmetrizing basis deriv contribution to polar:
 IMax=3 JMax=2 DiffMx= 0.00D+00
 G2DrvN: will do    10 centers at a time, making    1 passes.
 Calling FoFCou, ICntrl=  3107 FMM=F I1Cent=   0 AccDes= 0.00D+00.
 End of G2Drv F.D. properties file   721 does not exist.
 End of G2Drv F.D. properties file   722 does not exist.
 End of G2Drv F.D. properties file   788 does not exist.
          IDoAtm=111111111
          Differentiating once with respect to electric field.
                with respect to dipole field.
          Differentiating once with respect to nuclear coordinates.
 Keep R1 ints in memory in canonical form, NReq=25532590.
          There are    30 degrees of freedom in the 1st order CPHF.  IDoFFX=6 NUNeed=     3.
     27 vectors produced by pass  0 Test12= 2.52D-15 3.33D-09 XBig12= 1.05D+03 3.19D+01.
 AX will form    27 AO Fock derivatives at one time.
     27 vectors produced by pass  1 Test12= 2.52D-15 3.33D-09 XBig12= 2.32D+02 3.68D+00.
     27 vectors produced by pass  2 Test12= 2.52D-15 3.33D-09 XBig12= 3.15D+00 4.40D-01.
     27 vectors produced by pass  3 Test12= 2.52D-15 3.33D-09 XBig12= 5.58D-03 1.60D-02.
     27 vectors produced by pass  4 Test12= 2.52D-15 3.33D-09 XBig12= 3.57D-06 3.11D-04.
     11 vectors produced by pass  5 Test12= 2.52D-15 3.33D-09 XBig12= 1.31D-09 6.53D-06.
      2 vectors produced by pass  6 Test12= 2.52D-15 3.33D-09 XBig12= 4.00D-13 7.94D-08.
 InvSVY:  IOpt=1 It=  1 EMax= 7.99D-15
 Solved reduced A of dimension   148 with    30 vectors.
 Isotropic polarizability for W=    0.000000       43.90 Bohr**3.
 End of Minotr F.D. properties file   721 does not exist.
 End of Minotr F.D. properties file   722 does not exist.
 End of Minotr F.D. properties file   788 does not exist.
 Calling FoFJK, ICntrl=    100127 FMM=F ISym2X=0 I1Cent= 0 IOpClX= 0 NMat=1 NMatS=1 NMatT=0.
 ***** Axes restored to original set *****
 -------------------------------------------------------------------
 Center     Atomic                   Forces (Hartrees/Bohr)
 Number     Number              X              Y              Z
 -------------------------------------------------------------------
      1        6           0.015904015   -0.026637609   -0.004292913
      2        6          -0.013126799    0.056995027   -0.003526908
      3        6           0.002715416   -0.013866328    0.007244556
      4        1           0.002507535   -0.013590975    0.000875133
      5        1          -0.002940719    0.004086444    0.007565925
      6        1          -0.001428830   -0.003134699   -0.005815393
      7        1          -0.001890296    0.000304674   -0.000819358
      8        1          -0.000804581    0.005156777   -0.002383515
      9        1          -0.000935741   -0.009313311    0.001152473
 -------------------------------------------------------------------
 Cartesian Forces:  Max     0.056995027 RMS     0.013760506
 FormGI is forming the generalized inverse of G from B-inverse, IUseBI=4.

 GradGradGradGradGradGradGradGradGradGradGradGradGradGradGradGradGradGrad
 Berny optimization.
 Internal  Forces:  Max     0.014568230 RMS     0.006124008
 Search for a saddle point.
 Step number   4 out of a maximum of  100
 All quantities printed in internal units (Hartrees-Bohrs-Radians)
 Swapping is turned off.
 Second derivative matrix not updated -- analytic derivatives used.
 ITU=  0  0  0  0
     Eigenvalues ---   -0.01315  -0.00011   0.01506   0.02035   0.02718
     Eigenvalues ---    0.04427   0.08330   0.10192   0.10709   0.11810
     Eigenvalues ---    0.12947   0.14287   0.15610   0.26172   0.32091
     Eigenvalues ---    0.33285   0.34552   0.35297   0.35803   0.36464
     Eigenvalues ---    0.37164
 Eigenvectors required to have negative eigenvalues:
                          D2        D5        D8        D7        D12
   1                   -0.40862  -0.39508  -0.34232  -0.32923  -0.29259
                          D11       A4        D3        D6        D1
   1                   -0.27950   0.25036  -0.23741  -0.22387  -0.17936
 RFO step:  Lambda0=1.022380176D-02 Lambda=-2.03901180D-02.
 Linear search not attempted -- option 19 set.
 Iteration  1 RMS(Cart)=  0.08504523 RMS(Int)=  0.12386103
 Iteration  2 RMS(Cart)=  0.08036560 RMS(Int)=  0.04255650
 Iteration  3 RMS(Cart)=  0.03734426 RMS(Int)=  0.00221845
 Iteration  4 RMS(Cart)=  0.00191386 RMS(Int)=  0.00077042
 Iteration  5 RMS(Cart)=  0.00000226 RMS(Int)=  0.00077042
 Iteration  6 RMS(Cart)=  0.00000000 RMS(Int)=  0.00077042
 Variable       Old X    -DE/DX   Delta X   Delta X   Delta X     New X
                                 (Linear)    (Quad)   (Total)
    R1        2.79363  -0.00102   0.00000  -0.02097  -0.02097   2.77266
    R2        2.05539   0.00007   0.00000  -0.00133  -0.00133   2.05406
    R3        2.06757  -0.00019   0.00000  -0.00694  -0.00694   2.06064
    R4        2.75554  -0.00019   0.00000  -0.01876  -0.01876   2.73678
    R5        2.08451   0.00043   0.00000   0.00567   0.00567   2.09018
    R6        2.13274  -0.00256   0.00000  -0.01398  -0.01398   2.11876
    R7        2.05211   0.00011   0.00000  -0.00029  -0.00029   2.05182
    R8        2.05870  -0.00029   0.00000  -0.00574  -0.00574   2.05297
    A1        2.10275  -0.00174   0.00000  -0.00681  -0.00903   2.09372
    A2        1.98588   0.00446   0.00000   0.05535   0.05311   2.03899
    A3        1.96622   0.00049   0.00000   0.03238   0.02972   1.99594
    A4        2.10617  -0.01196   0.00000   0.04002   0.04026   2.14644
    A5        2.03211  -0.00008   0.00000  -0.01775  -0.01775   2.01436
    A6        1.83131   0.00750   0.00000  -0.04155  -0.04122   1.79009
    A7        1.98620   0.00103   0.00000  -0.02325  -0.02321   1.96299
    A8        1.81167   0.00747   0.00000  -0.01473  -0.01421   1.79746
    A9        1.58549   0.00499   0.00000   0.05799   0.05796   1.64345
   A10        2.09687  -0.00029   0.00000  -0.00389  -0.00419   2.09268
   A11        2.09780  -0.00011   0.00000   0.00991   0.00962   2.10742
   A12        2.03921  -0.00022   0.00000   0.00722   0.00692   2.04613
    D1       -1.63442  -0.01428   0.00000  -0.53448  -0.53474  -2.16916
    D2        2.11859   0.00422   0.00000  -0.52393  -0.52432   1.59427
    D3        0.39774  -0.00566   0.00000  -0.56301  -0.56364  -0.16589
    D4        0.78113  -0.00955   0.00000  -0.40989  -0.40930   0.37183
    D5       -1.74905   0.00895   0.00000  -0.39934  -0.39888  -2.14792
    D6        2.81329  -0.00092   0.00000  -0.43843  -0.43820   2.37510
    D7        0.20044   0.01241   0.00000   0.08898   0.08897   0.28941
    D8       -2.59860   0.01457   0.00000   0.04309   0.04303  -2.55557
    D9        2.74547  -0.00585   0.00000   0.07973   0.07978   2.82524
   D10       -0.05357  -0.00369   0.00000   0.03384   0.03383  -0.01974
   D11       -1.84172   0.00368   0.00000   0.13145   0.13150  -1.71022
   D12        1.64243   0.00583   0.00000   0.08556   0.08555   1.72798
         Item               Value     Threshold  Converged?
 Maximum Force            0.014568     0.000450     NO 
 RMS     Force            0.006124     0.000300     NO 
 Maximum Displacement     0.735421     0.001800     NO 
 RMS     Displacement     0.191837     0.001200     NO 
 Predicted change in Energy=-8.551132D-03
 GradGradGradGradGradGradGradGradGradGradGradGradGradGradGradGradGradGrad

                          Input orientation:                          
 ---------------------------------------------------------------------
 Center     Atomic      Atomic             Coordinates (Angstroms)
 Number     Number       Type             X           Y           Z
 ---------------------------------------------------------------------
      1          6           0       -2.598935   -0.414457    1.429427
      2          6           0       -1.320402    0.241138    1.726601
      3          6           0       -0.115400    0.003405    0.959232
      4          1           0       -1.111824    0.410361    2.799571
      5          1           0       -3.486923    0.185200    1.246732
      6          1           0       -1.544484    1.319383    1.516210
      7          1           0       -2.555394   -1.340258    0.854916
      8          1           0       -0.180207   -0.460244   -0.020433
      9          1           0        0.860040    0.021499    1.437161
 ---------------------------------------------------------------------
                    Distance matrix (angstroms):
                    1          2          3          4          5
     1  C    0.000000
     2  C    1.467230   0.000000
     3  C    2.561960   1.448242   0.000000
     4  H    2.183832   1.106077   2.131977   0.000000
     5  H    1.086963   2.219733   3.388639   2.846595   0.000000
     6  H    2.031157   1.121200   2.020967   1.631113   2.265404
     7  H    1.090443   2.187659   2.787451   2.988352   1.829833
     8  H    2.820362   2.200934   1.085778   3.094881   3.599539
     9  H    3.486349   2.210508   1.086383   2.428090   4.354210
                    6          7          8          9
     6  H    0.000000
     7  H    2.921119   0.000000
     8  H    2.718381   2.679958   0.000000
     9  H    2.733586   3.722712   1.854392   0.000000
 Stoichiometry    C3H6
 Framework group  C1[X(C3H6)]
 Deg. of freedom    21
 Full point group                 C1      NOp   1
 Largest Abelian subgroup         C1      NOp   1
 Largest concise Abelian subgroup C1      NOp   1
                         Standard orientation:                         
 ---------------------------------------------------------------------
 Center     Atomic      Atomic             Coordinates (Angstroms)
 Number     Number       Type             X           Y           Z
 ---------------------------------------------------------------------
      1          6           0        1.292895   -0.210489   -0.100547
      2          6           0       -0.009314    0.462700   -0.038626
      3          6           0       -1.263386   -0.254330    0.064210
      4          1           0       -0.097166    1.383181   -0.645588
      5          1           0        2.066345    0.036031    0.622288
      6          1           0        0.046843    1.013247    0.936481
      7          1           0        1.293403   -1.252459   -0.422050
      8          1           0       -1.267446   -1.297093    0.366768
      9          1           0       -2.163147    0.129804   -0.408124
 ---------------------------------------------------------------------
 Rotational constants (GHZ):          40.5533399           9.3742736           8.1887463
 Standard basis: 6-31G(d,p) (6D, 7F)
 There are    75 symmetry adapted cartesian basis functions of A   symmetry.
 There are    75 symmetry adapted basis functions of A   symmetry.
    75 basis functions,   126 primitive gaussians,    75 cartesian basis functions
    12 alpha electrons       12 beta electrons
       nuclear repulsion energy        69.9685275548 Hartrees.
 NAtoms=    9 NActive=    9 NUniq=    9 SFac= 1.00D+00 NAtFMM=   60 NAOKFM=F Big=F
 Integral buffers will be    131072 words long.
 Raffenetti 2 integral format.
 Two-electron integral symmetry is turned on.
 One-electron integrals computed using PRISM.
 NBasis=    75 RedAO= T EigKep=  5.53D-03  NBF=    75
 NBsUse=    75 1.00D-06 EigRej= -1.00D+00 NBFU=    75
 Initial guess from the checkpoint file:  "/scratch/brown/zhao922/pyGSM/new-benchmarking/R1-3/TS-folder/Gau-216867.chk"
 B after Tr=    -0.000000   -0.000000   -0.000000
         Rot=    0.999434    0.032569   -0.004985    0.006725 Ang=   3.85 deg.
 ExpMin= 1.61D-01 ExpMax= 3.05D+03 ExpMxC= 4.57D+02 IAcc=3 IRadAn=         5 AccDes= 0.00D+00
 Harris functional with IExCor=  402 and IRadAn=       5 diagonalized for initial guess.
 HarFok:  IExCor=  402 AccDes= 0.00D+00 IRadAn=         5 IDoV= 1 UseB2=F ITyADJ=14
 ICtDFT=  3500011 ScaDFX=  1.000000  1.000000  1.000000  1.000000
 FoFCou: FMM=F IPFlag=           0 FMFlag=      100000 FMFlg1=           0
         NFxFlg=           0 DoJE=T BraDBF=F KetDBF=T FulRan=T
         wScrn=  0.000000 ICntrl=       500 IOpCl=  0 I1Cent=   200000004 NGrid=           0
         NMat0=    1 NMatS0=      1 NMatT0=    0 NMatD0=    1 NMtDS0=    0 NMtDT0=    0
 Petite list used in FoFCou.
 Keep R1 ints in memory in canonical form, NReq=25608259.
 Requested convergence on RMS density matrix=1.00D-08 within 128 cycles.
 Requested convergence on MAX density matrix=1.00D-06.
 Requested convergence on             energy=1.00D-06.
 No special actions if energy rises.
 Integral accuracy reduced to 1.0D-05 until final iterations.
 Initial convergence to 1.0D-05 achieved.  Increase integral accuracy.
 SCF Done:  E(RB3LYP) =  -117.768108028     A.U. after   14 cycles
            NFock= 14  Conv=0.19D-08     -V/T= 2.0099
 DoSCS=F DFT=T ScalE2(SS,OS)=  1.000000  1.000000
 Range of M.O.s used for correlation:     1    75
 NBasis=    75 NAE=    12 NBE=    12 NFC=     0 NFV=     0
 NROrb=     75 NOA=    12 NOB=    12 NVA=    63 NVB=    63

 **** Warning!!: The smallest alpha delta epsilon is  0.74004813D-01

 Symmetrizing basis deriv contribution to polar:
 IMax=3 JMax=2 DiffMx= 0.00D+00
 G2DrvN: will do    10 centers at a time, making    1 passes.
 Calling FoFCou, ICntrl=  3107 FMM=F I1Cent=   0 AccDes= 0.00D+00.
 End of G2Drv F.D. properties file   721 does not exist.
 End of G2Drv F.D. properties file   722 does not exist.
 End of G2Drv F.D. properties file   788 does not exist.
          IDoAtm=111111111
          Differentiating once with respect to electric field.
                with respect to dipole field.
          Differentiating once with respect to nuclear coordinates.
 Keep R1 ints in memory in canonical form, NReq=25532597.
          There are    30 degrees of freedom in the 1st order CPHF.  IDoFFX=6 NUNeed=     3.
     27 vectors produced by pass  0 Test12= 2.52D-15 3.33D-09 XBig12= 8.83D+02 2.93D+01.
 AX will form    27 AO Fock derivatives at one time.
     27 vectors produced by pass  1 Test12= 2.52D-15 3.33D-09 XBig12= 1.91D+02 3.85D+00.
     27 vectors produced by pass  2 Test12= 2.52D-15 3.33D-09 XBig12= 2.34D+00 3.10D-01.
     27 vectors produced by pass  3 Test12= 2.52D-15 3.33D-09 XBig12= 3.49D-03 1.11D-02.
     27 vectors produced by pass  4 Test12= 2.52D-15 3.33D-09 XBig12= 1.80D-06 2.21D-04.
     10 vectors produced by pass  5 Test12= 2.52D-15 3.33D-09 XBig12= 5.89D-10 4.33D-06.
      2 vectors produced by pass  6 Test12= 2.52D-15 3.33D-09 XBig12= 1.85D-13 5.54D-08.
 InvSVY:  IOpt=1 It=  1 EMax= 2.84D-14
 Solved reduced A of dimension   147 with    30 vectors.
 Isotropic polarizability for W=    0.000000       43.16 Bohr**3.
 End of Minotr F.D. properties file   721 does not exist.
 End of Minotr F.D. properties file   722 does not exist.
 End of Minotr F.D. properties file   788 does not exist.
 Calling FoFJK, ICntrl=    100127 FMM=F ISym2X=0 I1Cent= 0 IOpClX= 0 NMat=1 NMatS=1 NMatT=0.
 ***** Axes restored to original set *****
 -------------------------------------------------------------------
 Center     Atomic                   Forces (Hartrees/Bohr)
 Number     Number              X              Y              Z
 -------------------------------------------------------------------
      1        6           0.005147561   -0.008886907   -0.003486195
      2        6          -0.003500704    0.023372284    0.000582744
      3        6           0.001803930   -0.005725905    0.003798934
      4        1           0.000435673   -0.007234800    0.000562650
      5        1          -0.000561187    0.000754462    0.004937927
      6        1          -0.001838468   -0.001010563   -0.005898497
      7        1          -0.000922544   -0.000052932    0.000267248
      8        1          -0.000100074    0.002895267   -0.001485476
      9        1          -0.000464188   -0.004110906    0.000720666
 -------------------------------------------------------------------
 Cartesian Forces:  Max     0.023372284 RMS     0.005687630
 FormGI is forming the generalized inverse of G from B-inverse, IUseBI=4.

 GradGradGradGradGradGradGradGradGradGradGradGradGradGradGradGradGradGrad
 Berny optimization.
 Internal  Forces:  Max     0.006065463 RMS     0.002620250
 Search for a saddle point.
 Step number   5 out of a maximum of  100
 All quantities printed in internal units (Hartrees-Bohrs-Radians)
 Swapping is turned off.
 Second derivative matrix not updated -- analytic derivatives used.
 ITU=  0  0  0  0  0
     Eigenvalues ---   -0.00861  -0.00051   0.01456   0.01847   0.02888
     Eigenvalues ---    0.03703   0.06427   0.09567   0.10653   0.11618
     Eigenvalues ---    0.12746   0.13779   0.17267   0.28786   0.31410
     Eigenvalues ---    0.35066   0.35731   0.35992   0.36129   0.36488
     Eigenvalues ---    0.39046
 Eigenvectors required to have negative eigenvalues:
                          D2        D5        D3        D8        D6
   1                    0.45216   0.42667   0.34640   0.32820   0.32091
                          D7        D1        D12       D4        A4
   1                    0.24927   0.22668   0.20638   0.20119  -0.17604
 RFO step:  Lambda0=1.440178800D-03 Lambda=-6.61814311D-03.
 Linear search not attempted -- option 19 set.
 Iteration  1 RMS(Cart)=  0.09239219 RMS(Int)=  0.08580841
 Iteration  2 RMS(Cart)=  0.06053192 RMS(Int)=  0.00682488
 Iteration  3 RMS(Cart)=  0.00506788 RMS(Int)=  0.00283411
 Iteration  4 RMS(Cart)=  0.00004304 RMS(Int)=  0.00283381
 Iteration  5 RMS(Cart)=  0.00000034 RMS(Int)=  0.00283381
 Variable       Old X    -DE/DX   Delta X   Delta X   Delta X     New X
                                 (Linear)    (Quad)   (Total)
    R1        2.77266   0.00012   0.00000   0.02332   0.02332   2.79599
    R2        2.05406   0.00004   0.00000   0.00165   0.00165   2.05571
    R3        2.06064  -0.00013   0.00000  -0.00298  -0.00298   2.05766
    R4        2.73678   0.00056   0.00000  -0.01783  -0.01783   2.71895
    R5        2.09018  -0.00048   0.00000  -0.01647  -0.01647   2.07371
    R6        2.11876   0.00050   0.00000   0.00714   0.00714   2.12590
    R7        2.05182   0.00011   0.00000  -0.00153  -0.00153   2.05029
    R8        2.05297  -0.00017   0.00000  -0.00368  -0.00368   2.04929
    A1        2.09372  -0.00156   0.00000  -0.02639  -0.02649   2.06723
    A2        2.03899   0.00244   0.00000   0.02852   0.02842   2.06742
    A3        1.99594   0.00061   0.00000   0.01588   0.01577   2.01171
    A4        2.14644  -0.00293   0.00000  -0.04230  -0.04510   2.10133
    A5        2.01436  -0.00175   0.00000   0.01777   0.01777   2.03213
    A6        1.79009   0.00144   0.00000  -0.12295  -0.13108   1.65901
    A7        1.96299   0.00039   0.00000   0.06421   0.06419   2.02718
    A8        1.79746   0.00214   0.00000  -0.06963  -0.07930   1.71816
    A9        1.64345   0.00413   0.00000   0.15690   0.15934   1.80278
   A10        2.09268   0.00024   0.00000  -0.01314  -0.01515   2.07753
   A11        2.10742  -0.00019   0.00000   0.03090   0.02889   2.13632
   A12        2.04613  -0.00018   0.00000   0.01207   0.01003   2.05616
    D1       -2.16916  -0.00607   0.00000  -0.23249  -0.23571  -2.40487
    D2        1.59427   0.00127   0.00000  -0.32570  -0.32637   1.26790
    D3       -0.16589  -0.00368   0.00000  -0.44735  -0.44350  -0.60940
    D4        0.37183  -0.00322   0.00000  -0.19506  -0.19824   0.17359
    D5       -2.14792   0.00412   0.00000  -0.28826  -0.28890  -2.43683
    D6        2.37510  -0.00084   0.00000  -0.40991  -0.40604   1.96906
    D7        0.28941   0.00521   0.00000   0.24678   0.24885   0.53826
    D8       -2.55557   0.00572   0.00000   0.12799   0.12986  -2.42571
    D9        2.82524  -0.00257   0.00000   0.32430   0.32488  -3.13307
   D10       -0.01974  -0.00206   0.00000   0.20552   0.20589   0.18614
   D11       -1.71022   0.00318   0.00000   0.48852   0.48617  -1.22405
   D12        1.72798   0.00369   0.00000   0.36973   0.36718   2.09516
         Item               Value     Threshold  Converged?
 Maximum Force            0.006065     0.000450     NO 
 RMS     Force            0.002620     0.000300     NO 
 Maximum Displacement     0.448242     0.001800     NO 
 RMS     Displacement     0.149851     0.001200     NO 
 Predicted change in Energy=-5.287424D-03
 GradGradGradGradGradGradGradGradGradGradGradGradGradGradGradGradGradGrad

                          Input orientation:                          
 ---------------------------------------------------------------------
 Center     Atomic      Atomic             Coordinates (Angstroms)
 Number     Number       Type             X           Y           Z
 ---------------------------------------------------------------------
[...]
 Rotational               0.889              2.981             22.151
 Vibrational             47.125              7.402              2.958
 Vibration     1          0.787              1.416              0.875
 Vibration     2          0.932              1.085              0.494
 Vibration     3          0.972              1.005              0.428
                       Q            Log10(Q)             Ln(Q)
 Total Bot       0.210344D-22        -22.677069        -52.215882
 Total V=0       0.240745D+12         11.381558         26.207006
 Vib (Bot)       0.126865D-33        -33.896658        -78.049939
 Vib (Bot)    1  0.411645D+00         -0.385477         -0.887593
 Vib (Bot)    2  0.266157D+00         -0.574862         -1.323669
 Vib (Bot)    3  0.240406D+00         -0.619055         -1.425426
 Vib (V=0)       0.145201D+01          0.161969          0.372948
 Vib (V=0)    1  0.114765D+01          0.059810          0.137717
 Vib (V=0)    2  0.106643D+01          0.027931          0.064314
 Vib (V=0)    3  0.105479D+01          0.023167          0.053344
 Electronic      0.100000D+01          0.000000          0.000000
 Translational   0.107166D+08          7.030056         16.187301
 Rotational      0.154715D+05          4.189533          9.646756
 ***** Axes restored to original set *****
 -------------------------------------------------------------------
 Center     Atomic                   Forces (Hartrees/Bohr)
 Number     Number              X              Y              Z
 -------------------------------------------------------------------
      1        6           0.000001871    0.000004053   -0.000001430
      2        6           0.000002718   -0.000008755    0.000006139
      3        6          -0.000003027   -0.000001430    0.000000332
      4        1          -0.000000463    0.000001685   -0.000000508
      5        1          -0.000002160   -0.000001982    0.000002705
      6        1          -0.000000293    0.000004539   -0.000005225
      7        1           0.000000787    0.000001415   -0.000001890
      8        1           0.000000040   -0.000000331    0.000000025
      9        1           0.000000529    0.000000808   -0.000000149
 -------------------------------------------------------------------
 Cartesian Forces:  Max     0.000008755 RMS     0.000002915
 FormGI is forming the generalized inverse of G from B-inverse, IUseBI=4.

 GradGradGradGradGradGradGradGradGradGradGradGradGradGradGradGradGradGrad
 Berny optimization.
 Internal  Forces:  Max     0.000006272 RMS     0.000001837
 Search for a saddle point.
 Step number   1 out of a maximum of    2
 All quantities printed in internal units (Hartrees-Bohrs-Radians)
 Swapping is turned off.
 Second derivative matrix not updated -- analytic derivatives used.
 ITU=  0
     Eigenvalues ---   -0.01466   0.00642   0.01424   0.01634   0.02717
     Eigenvalues ---    0.03383   0.05093   0.10191   0.10550   0.11519
     Eigenvalues ---    0.13357   0.14424   0.18106   0.28648   0.31669
     Eigenvalues ---    0.33926   0.35389   0.35708   0.36525   0.36568
     Eigenvalues ---    0.41356
 Eigenvectors required to have negative eigenvalues:
                          D5        D2        D6        D8        D3
   1                   -0.43137  -0.41153  -0.34663  -0.34626  -0.32679
                          D7        A6        D4        D1        A4
   1                   -0.27711  -0.27182  -0.20766  -0.18782   0.18717
 Angle between quadratic step and forces=  96.05 degrees.
 Linear search not attempted -- option 19 set.
 Iteration  1 RMS(Cart)=  0.00008479 RMS(Int)=  0.00000000
 Iteration  2 RMS(Cart)=  0.00000000 RMS(Int)=  0.00000000
 Variable       Old X    -DE/DX   Delta X   Delta X   Delta X     New X
                                 (Linear)    (Quad)   (Total)
    R1        2.81708  -0.00000   0.00000  -0.00001  -0.00001   2.81706
    R2        2.05830   0.00000   0.00000   0.00000   0.00000   2.05830
    R3        2.05750   0.00000   0.00000  -0.00000  -0.00000   2.05750
    R4        2.71136  -0.00000   0.00000   0.00002   0.00002   2.71137
    R5        2.07318  -0.00000   0.00000   0.00000   0.00000   2.07318
    R6        2.12795   0.00001   0.00000   0.00001   0.00001   2.12797
    R7        2.05017  -0.00000   0.00000  -0.00000  -0.00000   2.05017
    R8        2.04997   0.00000   0.00000   0.00000   0.00000   2.04997
    A1        2.05884   0.00000   0.00000   0.00003   0.00003   2.05888
    A2        2.05986  -0.00000   0.00000  -0.00001  -0.00001   2.05985
    A3        2.01087  -0.00000   0.00000   0.00001   0.00001   2.01088
    A4        2.08112  -0.00000   0.00000  -0.00007  -0.00007   2.08105
    A5        2.02429   0.00000   0.00000   0.00003   0.00003   2.02431
    A6        1.60542   0.00000   0.00000   0.00009   0.00009   1.60551
    A7        2.03129   0.00000   0.00000   0.00002   0.00002   2.03131
    A8        1.76396  -0.00000   0.00000  -0.00004  -0.00004   1.76392
    A9        1.85287   0.00000   0.00000  -0.00001  -0.00001   1.85285
   A10        2.07502   0.00000   0.00000  -0.00001  -0.00001   2.07501
   A11        2.13947   0.00000   0.00000   0.00001   0.00001   2.13949
   A12        2.05347  -0.00000   0.00000  -0.00000  -0.00000   2.05347
    D1       -2.39468  -0.00000   0.00000   0.00004   0.00004  -2.39464
    D2        1.32160  -0.00000   0.00000   0.00007   0.00007   1.32167
    D3       -0.58202  -0.00000   0.00000   0.00003   0.00003  -0.58199
    D4        0.15324  -0.00000   0.00000   0.00010   0.00010   0.15335
    D5       -2.41366  -0.00000   0.00000   0.00013   0.00013  -2.41353
    D6        1.96590  -0.00000   0.00000   0.00009   0.00009   1.96600
    D7        0.63756  -0.00000   0.00000   0.00011   0.00011   0.63767
    D8       -2.31297  -0.00000   0.00000   0.00011   0.00011  -2.31287
    D9       -3.08095   0.00000   0.00000   0.00008   0.00008  -3.08087
   D10        0.25170  -0.00000   0.00000   0.00008   0.00008   0.25178
   D11       -1.08372   0.00000   0.00000   0.00005   0.00005  -1.08367
   D12        2.24893  -0.00000   0.00000   0.00005   0.00005   2.24898
         Item               Value     Threshold  Converged?
 Maximum Force            0.000006     0.000450     YES
 RMS     Force            0.000002     0.000300     YES
 Maximum Displacement     0.000217     0.001800     YES
 RMS     Displacement     0.000085     0.001200     YES
 Predicted change in Energy= 1.757143D-10
 Optimization completed.
    -- Stationary point found.
                           ----------------------------
                           !   Optimized Parameters   !
                           ! (Angstroms and Degrees)  !
 --------------------------                            --------------------------
 ! Name  Definition              Value          Derivative Info.                !
 --------------------------------------------------------------------------------
 ! R1    R(1,2)                  1.4907         -DE/DX =    0.0                 !
 ! R2    R(1,5)                  1.0892         -DE/DX =    0.0                 !
 ! R3    R(1,7)                  1.0888         -DE/DX =    0.0                 !
 ! R4    R(2,3)                  1.4348         -DE/DX =    0.0                 !
 ! R5    R(2,4)                  1.0971         -DE/DX =    0.0                 !
 ! R6    R(2,6)                  1.1261         -DE/DX =    0.0                 !
 ! R7    R(3,8)                  1.0849         -DE/DX =    0.0                 !
 ! R8    R(3,9)                  1.0848         -DE/DX =    0.0                 !
 ! A1    A(2,1,5)              117.9629         -DE/DX =    0.0                 !
 ! A2    A(2,1,7)              118.0211         -DE/DX =    0.0                 !
 ! A3    A(5,1,7)              115.2146         -DE/DX =    0.0                 !
 ! A4    A(1,2,3)              119.2396         -DE/DX =    0.0                 !
 ! A5    A(1,2,4)              115.9831         -DE/DX =    0.0                 !
 ! A6    A(1,2,6)               91.9837         -DE/DX =    0.0                 !
 ! A7    A(3,2,4)              116.3841         -DE/DX =    0.0                 !
 ! A8    A(3,2,6)              101.0673         -DE/DX =    0.0                 !
 ! A9    A(4,2,6)              106.1615         -DE/DX =    0.0                 !
 ! A10   A(2,3,8)              118.89           -DE/DX =    0.0                 !
 ! A11   A(2,3,9)              122.5827         -DE/DX =    0.0                 !
 ! A12   A(8,3,9)              117.6554         -DE/DX =    0.0                 !
 ! D1    D(5,1,2,3)           -137.2049         -DE/DX =    0.0                 !
 ! D2    D(5,1,2,4)             75.7221         -DE/DX =    0.0                 !
 ! D3    D(5,1,2,6)            -33.3471         -DE/DX =    0.0                 !
 ! D4    D(7,1,2,3)              8.7803         -DE/DX =    0.0                 !
 ! D5    D(7,1,2,4)           -138.2928         -DE/DX =    0.0                 !
 ! D6    D(7,1,2,6)            112.638          -DE/DX =    0.0                 !
 ! D7    D(1,2,3,8)             36.5295         -DE/DX =    0.0                 !
 ! D8    D(1,2,3,9)           -132.5236         -DE/DX =    0.0                 !
 ! D9    D(4,2,3,8)           -176.5255         -DE/DX =    0.0                 !
 ! D10   D(4,2,3,9)             14.4214         -DE/DX =    0.0                 !
 ! D11   D(6,2,3,8)            -62.0926         -DE/DX =    0.0                 !
 ! D12   D(6,2,3,9)            128.8543         -DE/DX =    0.0                 !
 --------------------------------------------------------------------------------
 GradGradGradGradGradGradGradGradGradGradGradGradGradGradGradGradGradGrad


 ----------------------------------------------------------------------

 Electric dipole moment (input orientation):
 (Debye = 10**-18 statcoulomb cm , SI units = C m)
                  (au)            (Debye)         (10**-30 SI)
   Tot        0.329750D+00      0.838140D+00      0.279573D+01
   x          0.263804D-01      0.670522D-01      0.223662D+00
   y          0.316316D+00      0.803996D+00      0.268184D+01
   z         -0.893473D-01     -0.227098D+00     -0.757518D+00

 Dipole polarizability, Alpha (input orientation).
 (esu units = cm**3 , SI units = C**2 m**2 J**-1)
 Alpha(0;0):
               (au)            (10**-24 esu)      (10**-40 SI)
   iso        0.422465D+02      0.626028D+01      0.696550D+01
   aniso      0.456859D+02      0.676996D+01      0.753259D+01
   xx         0.702650D+02      0.104122D+02      0.115851D+02
   yx         0.628518D+01      0.931367D+00      0.103629D+01
   yy         0.269818D+02      0.399828D+01      0.444869D+01
   zx        -0.784387D+01     -0.116234D+01     -0.129328D+01
   zy         0.208577D+01      0.309080D+00      0.343897D+00
   zz         0.294927D+02      0.437036D+01      0.486268D+01

 ----------------------------------------------------------------------

 Dipole orientation:
     6         -4.53420577         -2.69214341         -1.93091505
     6         -2.18477031         -3.50246842         -0.60447190
     6         -0.03727880         -1.84737790         -0.58434165
     1         -1.78068323         -5.53567815         -0.63332169
     1         -6.33706426         -3.04345464         -1.00199870
     1         -3.03306190         -3.09419104          1.30390314
     1         -4.45705539         -0.98585439         -3.07805945
     1         -0.34641957          0.17468727         -0.44697776
     1          1.85776657         -2.49236994         -1.02612616

 Electric dipole moment (dipole orientation):
 (Debye = 10**-18 statcoulomb cm , SI units = C m)
                  (au)            (Debye)         (10**-30 SI)
   Tot        0.329750D+00      0.838140D+00      0.279573D+01
   x          0.000000D+00      0.000000D+00      0.000000D+00
   y          0.000000D+00      0.000000D+00      0.000000D+00
   z          0.329750D+00      0.838140D+00      0.279573D+01

 Dipole polarizability, Alpha (dipole orientation).
 (esu units = cm**3 , SI units = C**2 m**2 J**-1)
 Alpha(0;0):
               (au)            (10**-24 esu)      (10**-40 SI)
   iso        0.422465D+02      0.626028D+01      0.696550D+01
   aniso      0.456859D+02      0.676996D+01      0.753259D+01
   xx         0.678222D+02      0.100502D+02      0.111824D+02
   yx         0.818212D+01      0.121247D+01      0.134905D+01
   yy         0.312536D+02      0.463131D+01      0.515303D+01
   zx         0.116179D+02      0.172159D+01      0.191553D+01
   zy         0.539498D-01      0.799454D-02      0.889513D-02
   zz         0.276636D+02      0.409932D+01      0.456111D+01

 ----------------------------------------------------------------------
 1\1\GINC-BROWN-A094\Freq\RB3LYP\6-31G(d,p)\C3H6\ZHAO922\17-Jul-2020\0\
 \#N Geom=AllCheck Guess=TCheck SCRF=Check GenChk RB3LYP/6-31G(d,p) Fre
 q\\pp_2_1 TS\\0,1\C,-2.5550811675,-0.4421088204,1.4514905832\C,-1.2878
 114099,0.2744956617,1.7721005244\C,-0.1033940235,-0.0256261788,1.01997
 16085\H,-1.1412419677,0.5438856121,2.8254409133\H,-3.4762083218,0.1383
 413076,1.4203083456\H,-1.6406113268,1.2107009177,1.2553097577\H,-2.508
 5045076,-1.2760869346,0.7530924439\H,-0.1957352272,-0.2413383886,-0.03
 92511533\H,0.855058952,-0.2162361767,1.4909529767\\Version=ES64L-G16Re
 vB.01\State=1-A\HF=-117.7732262\RMSD=6.670e-10\RMSF=2.915e-06\ZeroPoin
 t=0.0740457\Thermal=0.0779318\Dipole=0.0263804,0.3163163,-0.0893473\Di
 poleDeriv=-0.2004705,-0.0495691,0.1620014,-0.4928718,0.0256759,0.30431
 97,0.2024209,0.2372212,-0.3024699,0.0851398,0.113303,-0.0990821,0.2306
 622,-0.1799537,-0.1430519,0.0054188,0.0114832,0.1890973,-0.3236983,-0.
 2730906,0.1500079,-0.111724,-0.3257134,0.0747708,0.1895314,0.1069897,0
 .0172506,0.1479213,-0.0156486,-0.0590353,-0.071373,0.1065061,-0.055713
 8,0.0029975,-0.0883583,-0.114038,-0.0084069,0.049802,-0.0173551,0.1904
 538,-0.0183027,-0.0524802,-0.201842,-0.0425456,0.1514719,0.2888182,0.0
 735014,-0.0531075,0.0093194,0.0845681,0.0865176,-0.0511808,0.012624,0.
 0920709,0.0123301,0.0244027,0.0167495,0.0513151,0.0153532,-0.1106604,-
 0.0618883,-0.1933819,0.0344297,0.0124021,0.0178635,-0.0558186,0.046731
 3,0.0962746,-0.1030587,-0.0122226,-0.0303264,-0.077414,-0.0140359,0.05
 94356,-0.0443601,0.147487,0.1955919,-0.0006431,-0.073235,-0.013706,0.0
 096016\Polar=70.2650077,6.2851784,26.98176,-7.8438693,2.085772,29.4926
 543\Quadrupole=-0.1381188,-0.0614183,0.199537,-1.0016922,0.8496906,0.8
 251923\PG=C01 [X(C3H6)]\NImag=1\\0.52193765,-0.07626248,0.43298912,0.0
 5775457,0.21624305,0.24826382,-0.16470952,-0.06116897,-0.05869498,0.47
 723216,-0.05512915,-0.06032381,-0.05596245,-0.03764761,0.34036408,-0.0
 2580874,-0.03858235,-0.06550882,-0.00939962,0.06649385,0.58843149,-0.0
 4101477,0.00419279,0.01685710,-0.22785973,0.04194889,0.10858651,0.6204
 7463,-0.02288961,0.00024538,0.00762916,0.06320158,-0.04710369,-0.04679
 599,-0.11400624,0.12560397,0.01297424,0.00197289,0.00213548,0.07703902
 ,-0.03433275,-0.16719953,0.02888722,0.08459065,0.61217215,-0.00060933,
 -0.00551717,-0.02010755,-0.05728914,-0.01325085,-0.03822630,0.00729175
 ,0.00359300,0.02880149,0.05905830,-0.00812037,-0.00933184,-0.01607083,
 -0.00316148,-0.04892484,-0.06279841,-0.00091739,-0.00194799,-0.0051897
 1,0.01465389,0.05482197,-0.00727740,-0.00451381,0.00091719,-0.02682033
 ,-0.05576883,-0.28293779,-0.00131626,0.00033922,-0.01490555,0.03415229
 ,0.06540250,0.30916450,-0.24817165,0.12900271,-0.00218580,-0.01491116,
 0.00655009,-0.00096879,-0.00069163,-0.00033908,-0.00326834,-0.00200298
 ,-0.00031620,-0.00040120,0.26714257,0.14192953,-0.12986411,-0.01321424
 ,-0.02017065,-0.00374926,0.00239648,0.00146754,0.00316504,-0.00342433,
 -0.00023007,0.00011985,-0.00040894,-0.13672434,0.13407734,-0.02767738,
 -0.01534793,-0.03046485,0.00210689,0.02661258,0.00039726,-0.00481746,-
 0.00560641,0.00296412,0.00077378,-0.00040760,-0.00088813,0.01004653,0.
 01079456,0.02167829,-0.01575620,-0.01064960,-0.00331419,-0.00061215,0.
 06471498,-0.02957072,-0.02537433,0.01992821,0.00332608,-0.00047471,0.0
 0011073,-0.00010043,-0.00296671,-0.00324179,0.00294222,0.04793359,-0.0
 0326815,-0.02324425,0.00556525,0.07503033,-0.18823804,0.09321984,-0.00
 013071,-0.01215173,0.00731439,-0.00126535,0.00596072,-0.00413817,0.000
 81755,0.00237998,-0.00078098,-0.07064764,0.21090958,-0.00400070,0.0108
 0000,-0.00772127,-0.01558246,0.06534623,-0.06658257,-0.00338040,-0.005
 05227,0.00752131,-0.00552031,0.02269897,-0.01206220,-0.00068204,-0.001
 90911,0.00357869,0.02720188,-0.09599148,0.07671471,-0.05328792,0.01564
 096,0.00897062,-0.00242860,-0.01483874,-0.01953579,0.00365385,-0.00056
 499,-0.00198950,-0.00291488,-0.00302974,-0.00015732,0.00237735,0.01783
 640,0.01639187,0.00004082,-0.00131946,0.00088371,0.05258907,0.02058622
 ,-0.21156043,-0.14472185,-0.01107460,0.00316748,-0.01166183,0.00285173
 ,-0.00415375,-0.00360433,-0.00135141,-0.00095532,0.00166193,0.00058190
 ,-0.00727447,-0.01241206,0.00196793,0.00219058,0.00167401,-0.01282174,
 0.22018823,-0.00463465,-0.16702193,-0.14794442,0.01843744,-0.00887513,
 -0.00430768,-0.00072887,0.00651066,0.00488264,-0.00149073,-0.00244751,
 -0.00089111,-0.00343020,0.00487338,0.00245907,-0.00281446,-0.00318734,
 -0.00171416,-0.00511246,0.16791130,0.14732228,0.00243382,0.00198144,0.
 00121723,0.00260669,0.00241440,0.02586585,-0.05686562,0.00400371,-0.03
 202522,-0.00377695,0.00168335,0.00178493,0.00019639,-0.00012130,0.0002
 6607,0.00045626,0.00001612,-0.00083812,-0.00005128,-0.00054799,-0.0001
 8676,0.05344951,0.00150969,0.00518856,0.00604477,-0.00798456,-0.007314
 84,-0.01416119,0.00849768,-0.03026782,-0.06085074,0.00296133,0.0023271
 6,-0.00334019,0.00014134,-0.00068509,0.00105281,-0.00314949,0.00084321
 ,-0.00114772,-0.00026936,-0.00007258,0.00028347,-0.00308492,0.02657667
 ,-0.00241541,-0.00152436,-0.00018259,-0.00266962,-0.00152512,-0.011041
 34,-0.02747243,-0.05640775,-0.33300652,0.00253542,-0.00185920,0.000801
 48,0.00015530,0.00044367,-0.00019583,0.00053083,-0.00090470,0.00040980
 ,0.00055394,0.00069457,0.00024366,0.02723132,0.06544989,0.34965239,-0.
 00082209,0.00278032,-0.00049700,-0.01202856,0.00523798,-0.01094240,-0.
 27961416,0.04707342,-0.11374498,0.00071793,-0.00090281,0.00013573,-0.0
 0097219,-0.00074532,-0.00003252,-0.00324657,0.00076730,0.00191844,0.00
 002158,-0.00019203,-0.00003929,0.00155120,0.00137829,0.00155065,0.2943
 9286,0.00164432,-0.00409862,-0.00551287,0.00297595,0.01212294,0.011889
 60,0.05609570,-0.03338941,0.01352393,0.00040662,-0.00206970,0.00076629
 ,0.00028602,0.00183072,-0.00390497,0.00096666,0.00134994,0.00358137,-0
 .00063332,-0.00152974,0.00195310,-0.00634481,0.00340474,-0.00436701,-0
 .05539714,0.02237913,0.00108547,-0.00202555,0.00050548,0.01558367,-0.0
 0198839,0.00874898,-0.11661539,0.01479272,-0.11456410,-0.00091809,0.00
 067179,0.00080162,0.00073455,0.00044853,0.00047138,0.00179880,-0.00109
 681,-0.00014430,-0.00000507,0.00045827,-0.00005028,-0.02331530,0.00666
 889,-0.00668104,0.12165137,-0.01792945,0.11091227\\-0.00000187,-0.0000
 0405,0.00000143,-0.00000272,0.00000876,-0.00000614,0.00000303,0.000001
 43,-0.00000033,0.00000046,-0.00000168,0.00000051,0.00000216,0.00000198
 ,-0.00000271,0.00000029,-0.00000454,0.00000522,-0.00000079,-0.00000141
 ,0.00000189,-0.00000004,0.00000033,-0.00000002,-0.00000053,-0.00000081
 ,0.00000015\\\@


 ADAM SMITH SAID, "THE REAL PRICE OF ANYTHING IS THE TOIL AND TROUBLE
 OF ACQUIRING IT."  BUT IN ALL UNDERTAKINGS WITH NATURE WE SHOULD FIRST
 READ CAREFULLY THE SMALL PRINT IN THE CONTRACT. THIS MIGHT DISCLOSE
 THAT THE REAL PRICE IS TO BE PAID BY THOSE WHO INHERIT THE DEPLETION
 AND DESPOILATION THAT FOLLOWS.
                               -- E. R. HARRISON IN "COSMOLOGY" (1980)
 Job cpu time:       0 days  0 hours  2 minutes  2.7 seconds.
 Elapsed time:       0 days  0 hours  0 minutes  5.8 seconds.
 File lengths (MBytes):  RWF=     10 Int=      0 D2E=      0 Chk=      2 Scr=      1
 Normal termination of Gaussian 16 at Fri Jul 17 17:28:29 2020.
