 Entering Gaussian System, Link 0=g16
 Initial command:
 /apps/cent7/gaussian/g16-B.01/g16-haswell/g16/l1.exe "/scratch/brown/zhao922/pyGSM/new-benchmarking/R1-3/TS-folder/Gau-114647.inp" -scrdir="/scratch/brown/zhao922/pyGSM/new-benchmarking/R1-3/TS-folder/"
 Entering Link 1 = /apps/cent7/gaussian/g16-B.01/g16-haswell/g16/l1.exe PID=    114648.
  
 Copyright (c) 1988-2017, Gaussian, Inc.  All Rights Reserved.
  
 This is part of the Gaussian(R) 16 program.  It is based on
 the Gaussian(R) 09 system (copyright 2009, Gaussian, Inc.),
 the Gaussian(R) 03 system (copyright 2003, Gaussian, Inc.),
 the Gaussian(R) 98 system (copyright 1998, Gaussian, Inc.),
 the Gaussian(R) 94 system (copyright 1995, Gaussian, Inc.),
 the Gaussian 92(TM) system (copyright 1992, Gaussian, Inc.),
 the Gaussian 90(TM) system (copyright 1990, Gaussian, Inc.),
 the Gaussian 88(TM) system (copyright 1988, Gaussian, Inc.),
 the Gaussian 86(TM) system (copyright 1986, Carnegie Mellon
 University), and the Gaussian 82(TM) system (copyright 1983,
 Carnegie Mellon University). Gaussian is a federally registered
 trademark of Gaussian, Inc.
  
 This software contains proprietary and confidential information,
 including trade secrets, belonging to Gaussian, Inc.
  
 This software is provided under written license and may be
 used, copied, transmitted, or stored only in accord with that
 written license.
  
 The following legend is applicable only to US Government
 contracts under FAR:
  
                    RESTRICTED RIGHTS LEGEND
  
 Use, reproduction and disclosure by the US Government is
 subject to restrictions as set forth in subparagraphs (a)
 and (c) of the Commercial Computer Software - Restricted
 Rights clause in FAR 52.227-19.
  
 Gaussian, Inc.
 340 Quinnipiac St., Bldg. 40, Wallingford CT 06492
  
  
 ---------------------------------------------------------------
 Warning -- This program may not be used in any manner that
 competes with the business of Gaussian, Inc. or will provide
 assistance to any competitor of Gaussian, Inc.  The licensee
 of this program is prohibited from giving any competitor of
 Gaussian, Inc. access to this program.  By using this program,
 the user acknowledges that Gaussian, Inc. is engaged in the
 business of creating and licensing software in the field of
 computational chemistry and represents and warrants to the
 licensee that it is not a competitor of Gaussian, Inc. and that
 it will not use this program in any manner prohibited above.
 ---------------------------------------------------------------
  

 Cite this work as:
 Gaussian 16, Revision B.01,
 M. J. Frisch, G. W. Trucks, H. B. Schlegel, G. E. Scuseria, 
 M. A. Robb, J. R. Cheeseman, G. Scalmani, V. Barone, 
 G. A. Petersson, H. Nakatsuji, X. Li, M. Caricato, A. V. Marenich, 
 J. Bloino, B. G. Janesko, R. Gomperts, B. Mennucci, H. P. Hratchian, 
 J. V. Ortiz, A. F. Izmaylov, J. L. Sonnenberg, D. Williams-Young, 
 F. Ding, F. Lipparini, F. Egidi, J. Goings, B. Peng, A. Petrone, 
 T. Henderson, D. Ranasinghe, V. G. Zakrzewski, J. Gao, N. Rega, 
 G. Zheng, W. Liang, M. Hada, M. Ehara, K. Toyota, R. Fukuda, 
 J. Hasegawa, M. Ishida, T. Nakajima, Y. Honda, O. Kitao, H. Nakai, 
 T. Vreven, K. Throssell, J. A. Montgomery, Jr., J. E. Peralta, 
 F. Ogliaro, M. J. Bearpark, J. J. Heyd, E. N. Brothers, K. N. Kudin, 
 V. N. Staroverov, T. A. Keith, R. Kobayashi, J. Normand, 
 K. Raghavachari, A. P. Rendell, J. C. Burant, S. S. Iyengar, 
 J. Tomasi, M. Cossi, J. M. Millam, M. Klene, C. Adamo, R. Cammi, 
 J. W. Ochterski, R. L. Martin, K. Morokuma, O. Farkas, 
 J. B. Foresman, and D. J. Fox, Gaussian, Inc., Wallingford CT, 2016.
 
 ******************************************
 Gaussian 16:  ES64L-G16RevB.01 20-Dec-2017
                17-Jul-2020 
 ******************************************
 %NProcShared=24
 Will use up to   24 processors via shared memory.
 %Mem=60GB
 --------------------------------------------------------------
 # B3LYP/6-31G** OPT=(TS, CALCALL, NOEIGEN, maxcycles=100) Freq
 --------------------------------------------------------------
 1/5=1,6=100,10=4,11=1,18=20,26=3,38=1/1,3;
 2/9=110,12=2,17=6,18=5,40=1/2;
 3/5=1,6=6,7=101,11=2,25=1,30=1,71=2,74=-5,140=1/1,2,3;
 4//1;
 5/5=2,38=5/2;
 8/6=4,10=90,11=11/1;
 11/6=1,8=1,9=11,15=111,16=1/1,2,10;
 10/6=1/2;
 6/7=2,8=2,9=2,10=2,18=1,28=1/1;
 7/10=1,25=1/1,2,3,16;
 1/5=1,6=100,10=4,11=1,18=20,26=3/3(3);
 2/9=110/2;
 7/8=1,9=1,25=1,44=-1/16;
 99//99;
 2/9=110/2;
 3/5=1,6=6,7=101,11=2,25=1,30=1,71=2,74=-5,140=1/1,2,3;
 4/5=5,16=3,69=1/1;
 5/5=2,38=5/2;
 8/6=4,10=90,11=11/1;
 11/6=1,8=1,9=11,15=111,16=1/1,2,10;
 10/6=1/2;
 7/10=1,25=1/1,2,3,16;
 1/5=1,6=100,10=4,11=1,18=20,26=3/3(-8);
 2/9=110/2;
 6/7=2,8=2,9=2,10=2,18=1,19=2,28=1/1;
 7/8=1,9=1,25=1,44=-1/16;
 99//99;
 ---------
 pp_3_1 TS
 ---------
 Symbolic Z-matrix:
 Charge =  0 Multiplicity = 1
 C                    -2.47183  -0.60474   1.17399 
 C                    -1.20729  -0.24856   1.17091 
 C                     0.07453  -0.17953   0.9572 
 H                    -1.5005    0.72645   2.91404 
 H                    -3.15632  -0.43408   1.98487 
 H                    -2.52658   1.47527   1.60308 
 H                    -2.82376  -1.39576   0.51796 
 H                     0.47483   0.28904   0.07108 
 H                     0.78944  -0.5155    1.68702 
 
 Add virtual bond connecting atoms H6         and H4         Dist= 3.45D+00.
 Add virtual bond connecting atoms H4         and C2         Dist= 3.81D+00.
 Add virtual bond connecting atoms H6         and C1         Dist= 4.01D+00.
 Add virtual bond connecting atoms H6         and H5         Dist= 3.87D+00.

 GradGradGradGradGradGradGradGradGradGradGradGradGradGradGradGradGradGrad
 Berny optimization.
 Initialization pass.
                           ----------------------------
                           !    Initial Parameters    !
                           ! (Angstroms and Degrees)  !
 --------------------------                            --------------------------
 ! Name  Definition              Value          Derivative Info.                !
 --------------------------------------------------------------------------------
 ! R1    R(1,2)                  1.3137         calculate D2E/DX2 analytically  !
 ! R2    R(1,5)                  1.0748         calculate D2E/DX2 analytically  !
 ! R3    R(1,6)                  2.1245         calculate D2E/DX2 analytically  !
 ! R4    R(1,7)                  1.0863         calculate D2E/DX2 analytically  !
 ! R5    R(2,3)                  1.3013         calculate D2E/DX2 analytically  !
 ! R6    R(2,4)                  2.0187         calculate D2E/DX2 analytically  !
 ! R7    R(3,8)                  1.0794         calculate D2E/DX2 analytically  !
 ! R8    R(3,9)                  1.0755         calculate D2E/DX2 analytically  !
 ! R9    R(4,6)                  1.8254         calculate D2E/DX2 analytically  !
 ! R10   R(5,6)                  2.0464         calculate D2E/DX2 analytically  !
 ! A1    A(2,1,5)              124.8706         calculate D2E/DX2 analytically  !
 ! A2    A(2,1,6)               76.1039         calculate D2E/DX2 analytically  !
 ! A3    A(2,1,7)              120.5212         calculate D2E/DX2 analytically  !
 ! A4    A(5,1,7)              111.4044         calculate D2E/DX2 analytically  !
 ! A5    A(6,1,7)              145.7496         calculate D2E/DX2 analytically  !
 ! A6    A(1,2,3)              164.3374         calculate D2E/DX2 analytically  !
 ! A7    A(1,2,4)               89.3764         calculate D2E/DX2 analytically  !
 ! A8    A(3,2,4)              105.0256         calculate D2E/DX2 analytically  !
 ! A9    A(2,3,8)              121.5444         calculate D2E/DX2 analytically  !
 ! A10   A(2,3,9)              121.787          calculate D2E/DX2 analytically  !
 ! A11   A(8,3,9)              116.5001         calculate D2E/DX2 analytically  !
 ! A12   A(2,4,6)               70.1011         calculate D2E/DX2 analytically  !
 ! A13   A(1,6,4)               74.2727         calculate D2E/DX2 analytically  !
 ! A14   A(4,6,5)               69.895          calculate D2E/DX2 analytically  !
 ! D1    D(5,1,2,3)            150.2386         calculate D2E/DX2 analytically  !
 ! D2    D(5,1,2,4)             -6.9108         calculate D2E/DX2 analytically  !
 ! D3    D(6,1,2,3)           -155.1787         calculate D2E/DX2 analytically  !
 ! D4    D(6,1,2,4)             47.6719         calculate D2E/DX2 analytically  !
 ! D5    D(7,1,2,3)             -7.7616         calculate D2E/DX2 analytically  !
 ! D6    D(7,1,2,4)           -164.911          calculate D2E/DX2 analytically  !
 ! D7    D(2,1,6,4)            -58.1378         calculate D2E/DX2 analytically  !
 ! D8    D(7,1,6,4)            177.3758         calculate D2E/DX2 analytically  !
 ! D9    D(1,2,3,8)             83.2296         calculate D2E/DX2 analytically  !
 ! D10   D(1,2,3,9)           -101.6543         calculate D2E/DX2 analytically  !
 ! D11   D(4,2,3,8)           -120.4769         calculate D2E/DX2 analytically  !
 ! D12   D(4,2,3,9)             54.6392         calculate D2E/DX2 analytically  !
 ! D13   D(1,2,4,6)            -62.658          calculate D2E/DX2 analytically  !
 ! D14   D(3,2,4,6)            123.5737         calculate D2E/DX2 analytically  !
 ! D15   D(2,4,6,1)             34.7937         calculate D2E/DX2 analytically  !
 ! D16   D(2,4,6,5)             65.8091         calculate D2E/DX2 analytically  !
 --------------------------------------------------------------------------------
 Trust Radius=3.00D-01 FncErr=1.00D-07 GrdErr=1.00D-06 EigMax=2.50D+02 EigMin=1.00D-04
 Number of steps in this run=    100 maximum allowed number of steps=    100.
 Search for a saddle point of order  1.
 GradGradGradGradGradGradGradGradGradGradGradGradGradGradGradGradGradGrad

                          Input orientation:                          
 ---------------------------------------------------------------------
 Center     Atomic      Atomic             Coordinates (Angstroms)
 Number     Number       Type             X           Y           Z
 ---------------------------------------------------------------------
      1          6           0       -2.471832   -0.604738    1.173991
      2          6           0       -1.207293   -0.248556    1.170906
      3          6           0        0.074527   -0.179527    0.957197
      4          1           0       -1.500497    0.726449    2.914035
      5          1           0       -3.156324   -0.434075    1.984873
      6          1           0       -2.526579    1.475265    1.603077
      7          1           0       -2.823756   -1.395759    0.517955
      8          1           0        0.474832    0.289042    0.071080
      9          1           0        0.789440   -0.515502    1.687017
 ---------------------------------------------------------------------
                    Distance matrix (angstroms):
                    1          2          3          4          5
     1  C    0.000000
     2  C    1.313748   0.000000
     3  C    2.590704   1.301345   0.000000
     4  H    2.396519   2.018688   2.670339   0.000000
     5  H    1.074795   2.120302   3.399899   2.225291   0.000000
     6  H    2.124506   2.213334   3.149802   1.825426   2.046442
     7  H    1.086254   2.086953   3.173673   3.463521   1.785297
     8  H    3.270793   2.080426   1.079354   3.489361   4.167829
     9  H    3.302583   2.079561   1.075461   2.879553   3.957828
                    6          7          8          9
     6  H    0.000000
     7  H    3.083599   0.000000
     8  H    3.572479   3.730809   0.000000
     9  H    3.868615   3.898300   1.832354   0.000000
 Stoichiometry    C3H6
 Framework group  C1[X(C3H6)]
 Deg. of freedom    21
 Full point group                 C1      NOp   1
 Largest Abelian subgroup         C1      NOp   1
 Largest concise Abelian subgroup C1      NOp   1
                         Standard orientation:                         
 ---------------------------------------------------------------------
 Center     Atomic      Atomic             Coordinates (Angstroms)
 Number     Number       Type             X           Y           Z
 ---------------------------------------------------------------------
      1          6           0        1.223426   -0.287670   -0.022025
      2          6           0       -0.060355   -0.010267    0.007764
      3          6           0       -1.359408   -0.087054   -0.000312
      4          1           0        0.356073    1.875851   -0.578964
      5          1           0        1.986420    0.372913   -0.391695
      6          1           0        1.122442    1.546787    1.044790
      7          1           0        1.565616   -1.318480   -0.005173
      8          1           0       -1.916559   -0.325118    0.892947
      9          1           0       -1.935970    0.157991   -0.874466
 ---------------------------------------------------------------------
 Rotational constants (GHZ):          41.8730136           8.6109204           7.8457194
 Standard basis: 6-31G(d,p) (6D, 7F)
 There are    75 symmetry adapted cartesian basis functions of A   symmetry.
 There are    75 symmetry adapted basis functions of A   symmetry.
    75 basis functions,   126 primitive gaussians,    75 cartesian basis functions
    12 alpha electrons       12 beta electrons
       nuclear repulsion energy        69.0805522916 Hartrees.
 NAtoms=    9 NActive=    9 NUniq=    9 SFac= 1.00D+00 NAtFMM=   60 NAOKFM=F Big=F
 Integral buffers will be    131072 words long.
 Raffenetti 2 integral format.
 Two-electron integral symmetry is turned on.
 One-electron integrals computed using PRISM.
 NBasis=    75 RedAO= T EigKep=  1.73D-03  NBF=    75
 NBsUse=    75 1.00D-06 EigRej= -1.00D+00 NBFU=    75
 ExpMin= 1.61D-01 ExpMax= 3.05D+03 ExpMxC= 4.57D+02 IAcc=3 IRadAn=         5 AccDes= 0.00D+00
 Harris functional with IExCor=  402 and IRadAn=       5 diagonalized for initial guess.
 HarFok:  IExCor=  402 AccDes= 0.00D+00 IRadAn=         5 IDoV= 1 UseB2=F ITyADJ=14
 ICtDFT=  3500011 ScaDFX=  1.000000  1.000000  1.000000  1.000000
 FoFCou: FMM=F IPFlag=           0 FMFlag=      100000 FMFlg1=           0
         NFxFlg=           0 DoJE=T BraDBF=F KetDBF=T FulRan=T
         wScrn=  0.000000 ICntrl=       500 IOpCl=  0 I1Cent=   200000004 NGrid=           0
         NMat0=    1 NMatS0=      1 NMatT0=    0 NMatD0=    1 NMtDS0=    0 NMtDT0=    0
 Petite list used in FoFCou.
 Keep R1 ints in memory in canonical form, NReq=25608259.
 Requested convergence on RMS density matrix=1.00D-08 within 128 cycles.
 Requested convergence on MAX density matrix=1.00D-06.
 Requested convergence on             energy=1.00D-06.
 No special actions if energy rises.
 Integral accuracy reduced to 1.0D-05 until final iterations.
 Initial convergence to 1.0D-05 achieved.  Increase integral accuracy.
 SCF Done:  E(RB3LYP) =  -117.657468161     A.U. after   15 cycles
            NFock= 15  Conv=0.66D-08     -V/T= 2.0100
 DoSCS=F DFT=T ScalE2(SS,OS)=  1.000000  1.000000
 Range of M.O.s used for correlation:     1    75
 NBasis=    75 NAE=    12 NBE=    12 NFC=     0 NFV=     0
 NROrb=     75 NOA=    12 NOB=    12 NVA=    63 NVB=    63
 Symmetrizing basis deriv contribution to polar:
 IMax=3 JMax=2 DiffMx= 0.00D+00
 G2DrvN: will do    10 centers at a time, making    1 passes.
 Calling FoFCou, ICntrl=  3107 FMM=F I1Cent=   0 AccDes= 0.00D+00.
 End of G2Drv F.D. properties file   721 does not exist.
 End of G2Drv F.D. properties file   722 does not exist.
 End of G2Drv F.D. properties file   788 does not exist.
          IDoAtm=111111111
          Differentiating once with respect to electric field.
                with respect to dipole field.
          Differentiating once with respect to nuclear coordinates.
 Keep R1 ints in memory in canonical form, NReq=25532604.
          There are    30 degrees of freedom in the 1st order CPHF.  IDoFFX=6 NUNeed=     3.
     27 vectors produced by pass  0 Test12= 2.52D-15 3.33D-09 XBig12= 1.15D+02 6.68D+00.
 AX will form    27 AO Fock derivatives at one time.
     27 vectors produced by pass  1 Test12= 2.52D-15 3.33D-09 XBig12= 1.13D+01 8.47D-01.
     27 vectors produced by pass  2 Test12= 2.52D-15 3.33D-09 XBig12= 9.26D-02 7.54D-02.
     27 vectors produced by pass  3 Test12= 2.52D-15 3.33D-09 XBig12= 1.11D-04 1.97D-03.
     27 vectors produced by pass  4 Test12= 2.52D-15 3.33D-09 XBig12= 6.09D-08 5.40D-05.
     10 vectors produced by pass  5 Test12= 2.52D-15 3.33D-09 XBig12= 3.02D-11 1.10D-06.
      3 vectors produced by pass  6 Test12= 2.52D-15 3.33D-09 XBig12= 1.16D-14 2.17D-08.
 InvSVY:  IOpt=1 It=  1 EMax= 5.33D-15
 Solved reduced A of dimension   148 with    30 vectors.
 Isotropic polarizability for W=    0.000000       46.58 Bohr**3.
 End of Minotr F.D. properties file   721 does not exist.
 End of Minotr F.D. properties file   722 does not exist.
 End of Minotr F.D. properties file   788 does not exist.

 **********************************************************************

            Population analysis using the SCF Density.

 **********************************************************************

 Orbital symmetries:
       Occupied  (A) (A) (A) (A) (A) (A) (A) (A) (A) (A) (A) (A)
       Virtual   (A) (A) (A) (A) (A) (A) (A) (A) (A) (A) (A) (A)
                 (A) (A) (A) (A) (A) (A) (A) (A) (A) (A) (A) (A)
                 (A) (A) (A) (A) (A) (A) (A) (A) (A) (A) (A) (A)
                 (A) (A) (A) (A) (A) (A) (A) (A) (A) (A) (A) (A)
                 (A) (A) (A) (A) (A) (A) (A) (A) (A) (A) (A) (A)
                 (A) (A) (A)
 The electronic state is 1-A.
 Alpha  occ. eigenvalues --  -10.23604 -10.21462 -10.19438  -0.80961  -0.71741
 Alpha  occ. eigenvalues --   -0.54027  -0.46949  -0.46442  -0.44489  -0.32190
 Alpha  occ. eigenvalues --   -0.26777  -0.22812
 Alpha virt. eigenvalues --   -0.08550  -0.02605   0.02928   0.12948   0.14212
 Alpha virt. eigenvalues --    0.19181   0.21680   0.30330   0.33414   0.43229
 Alpha virt. eigenvalues --    0.54426   0.56755   0.61440   0.63536   0.66600
 Alpha virt. eigenvalues --    0.68848   0.72260   0.79041   0.82414   0.84427
 Alpha virt. eigenvalues --    0.87967   0.90186   0.90836   0.92097   1.03942
 Alpha virt. eigenvalues --    1.12337   1.18959   1.39907   1.42384   1.51979
 Alpha virt. eigenvalues --    1.58540   1.66542   1.73298   1.87155   1.93968
 Alpha virt. eigenvalues --    1.97209   1.99196   2.01744   2.02254   2.07859
 Alpha virt. eigenvalues --    2.11643   2.14873   2.22094   2.22500   2.24255
 Alpha virt. eigenvalues --    2.35002   2.39143   2.42268   2.47891   2.54372
 Alpha virt. eigenvalues --    2.57786   2.76245   2.82282   2.85830   2.95102
 Alpha virt. eigenvalues --    3.21451   3.28960   3.35620   3.53212   3.64194
 Alpha virt. eigenvalues --    4.17544   4.36500   4.64727
          Condensed to atoms (all electrons):
               1          2          3          4          5          6
     1  C    5.173971   0.593235  -0.153518  -0.031758   0.358409   0.005299
     2  C    0.593235   4.560484   0.643406   0.037899  -0.008104  -0.041493
     3  C   -0.153518   0.643406   5.179960  -0.016783   0.005065  -0.011548
     4  H   -0.031758   0.037899  -0.016783   0.923419  -0.010681   0.182620
     5  H    0.358409  -0.008104   0.005065  -0.010681   0.529713   0.008125
     6  H    0.005299  -0.041493  -0.011548   0.182620   0.008125   0.917553
     7  H    0.358816  -0.031459  -0.001618   0.004028  -0.043158   0.004089
     8  H    0.002808  -0.011710   0.354271   0.002140  -0.000067  -0.000097
     9  H    0.001594  -0.009402   0.367399  -0.003677  -0.000093   0.000345
               7          8          9
     1  C    0.358816   0.002808   0.001594
     2  C   -0.031459  -0.011710  -0.009402
     3  C   -0.001618   0.354271   0.367399
     4  H    0.004028   0.002140  -0.003677
     5  H   -0.043158  -0.000067  -0.000093
     6  H    0.004089  -0.000097   0.000345
     7  H    0.581253   0.000369  -0.000087
     8  H    0.000369   0.558850  -0.037900
     9  H   -0.000087  -0.037900   0.541269
 Mulliken charges:
               1
     1  C   -0.308856
     2  C    0.267144
     3  C   -0.366635
     4  H   -0.087206
     5  H    0.160790
     6  H   -0.064893
     7  H    0.127768
     8  H    0.131336
     9  H    0.140552
 Sum of Mulliken charges =   0.00000
 Mulliken charges with hydrogens summed into heavy atoms:
               1
     1  C   -0.085191
     2  C    0.179937
     3  C   -0.094747
 APT charges:
               1
     1  C   -0.079237
     2  C    0.249170
     3  C   -0.248798
     4  H   -0.053054
     5  H    0.048583
     6  H   -0.074590
     7  H    0.026554
     8  H    0.063226
     9  H    0.068147
 Sum of APT charges =   0.00000
 APT charges with hydrogens summed into heavy atoms:
               1
     1  C   -0.078691
     2  C    0.196116
     3  C   -0.117425
 Electronic spatial extent (au):  <R**2>=            214.0612
 Charge=              0.0000 electrons
 Dipole moment (field-independent basis, Debye):
    X=             -0.2465    Y=             -1.4879    Z=             -0.3330  Tot=              1.5445
 Quadrupole moment (field-independent basis, Debye-Ang):
   XX=            -17.5837   YY=            -24.0978   ZZ=            -20.9537
   XY=             -1.4043   XZ=             -0.6851   YZ=             -1.0124
 Traceless Quadrupole moment (field-independent basis, Debye-Ang):
   XX=              3.2947   YY=             -3.2194   ZZ=             -0.0753
   XY=             -1.4043   XZ=             -0.6851   YZ=             -1.0124
 Octapole moment (field-independent basis, Debye-Ang**2):
  XXX=             -2.8017  YYY=            -12.4094  ZZZ=             -0.8831  XYY=             -0.4935
  XXY=             -3.1694  XXZ=             -2.0588  XZZ=             -3.1296  YZZ=             -1.6987
  YYZ=             -0.9231  XYZ=              0.4132
 Hexadecapole moment (field-independent basis, Debye-Ang**3):
 XXXX=           -179.7647 YYYY=            -94.5237 ZZZZ=            -39.4576 XXXY=             -5.0053
 XXXZ=             -4.5670 YYYX=            -10.9987 YYYZ=             -3.1620 ZZZX=             -1.9193
 ZZZY=             -1.6933 XXYY=            -47.5142 XXZZ=            -36.0282 YYZZ=            -20.7875
 XXYZ=             -2.9286 YYXZ=             -1.1674 ZZXY=             -0.8799
 N-N= 6.908055229157D+01 E-N=-4.095033501392D+02  KE= 1.164910593524D+02
  Exact polarizability:  61.974   4.805  44.127   6.159  -0.873  33.632
 Approx polarizability: 114.765   8.697  71.722  30.005  -4.020  75.812
 Calling FoFJK, ICntrl=    100127 FMM=F ISym2X=0 I1Cent= 0 IOpClX= 0 NMat=1 NMatS=1 NMatT=0.
 ***** Axes restored to original set *****
 -------------------------------------------------------------------
 Center     Atomic                   Forces (Hartrees/Bohr)
 Number     Number              X              Y              Z
 -------------------------------------------------------------------
      1        6          -0.024907719   -0.014493445    0.002216460
      2        6           0.009118147   -0.007078636    0.019004751
      3        6           0.009908087    0.006391104   -0.012735908
      4        1          -0.021592015    0.020835443   -0.035918556
      5        1          -0.002961864    0.014160345   -0.002929891
      6        1           0.020065614   -0.015440595    0.036776776
      7        1           0.004943364   -0.004435821   -0.006984356
      8        1           0.002423199    0.006370740   -0.003375477
      9        1           0.003003187   -0.006309135    0.003946202
 -------------------------------------------------------------------
 Cartesian Forces:  Max     0.036776776 RMS     0.015212174
 FormGI is forming the generalized inverse of G from B-inverse, IUseBI=4.

 GradGradGradGradGradGradGradGradGradGradGradGradGradGradGradGradGradGrad
 Berny optimization.
 Internal  Forces:  Max     0.036561055 RMS     0.008509350
 Search for a saddle point.
 Step number   1 out of a maximum of  100
 All quantities printed in internal units (Hartrees-Bohrs-Radians)
 Swapping is turned off.
 Second derivative matrix not updated -- analytic derivatives used.
 ITU=  0
     Eigenvalues ---   -0.04192  -0.01039  -0.00192   0.00235   0.00794
     Eigenvalues ---    0.01266   0.02149   0.02867   0.03096   0.04179
     Eigenvalues ---    0.06928   0.07653   0.09113   0.10073   0.10507
     Eigenvalues ---    0.35277   0.36245   0.37362   0.38424   0.57269
     Eigenvalues ---    0.70904
 Eigenvectors required to have negative eigenvalues:
                          R9        R6        R3        D4        D12
   1                   -0.71173   0.36391   0.26204  -0.21176   0.16841
                          A5        D11       D3        D14       D8
   1                    0.16731   0.16081  -0.14089  -0.13669  -0.13026
 RFO step:  Lambda0=1.956027800D-02 Lambda=-3.15006645D-02.
 Linear search not attempted -- option 19 set.
 Maximum step size (   0.300) exceeded in Quadratic search.
    -- Step size scaled by   0.324
 Iteration  1 RMS(Cart)=  0.03688719 RMS(Int)=  0.00877362
 Iteration  2 RMS(Cart)=  0.00723453 RMS(Int)=  0.00051765
 Iteration  3 RMS(Cart)=  0.00002288 RMS(Int)=  0.00051673
 Iteration  4 RMS(Cart)=  0.00000003 RMS(Int)=  0.00051673
 Variable       Old X    -DE/DX   Delta X   Delta X   Delta X     New X
                                 (Linear)    (Quad)   (Total)
    R1        2.48262   0.01883   0.00000   0.02099   0.02129   2.50391
    R2        2.03107   0.00256   0.00000   0.00043   0.00075   2.03182
    R3        4.01473   0.00835   0.00000  -0.09616  -0.09647   3.91827
    R4        2.05272   0.00585   0.00000   0.00584   0.00584   2.05856
    R5        2.45919   0.01744   0.00000   0.01632   0.01632   2.47551
    R6        3.81477  -0.00315   0.00000  -0.25657  -0.25708   3.55769
    R7        2.03968   0.00644   0.00000   0.00475   0.00475   2.04443
    R8        2.03233   0.00665   0.00000   0.00450   0.00450   2.03683
    R9        3.44956  -0.03656   0.00000  -0.02242  -0.02165   3.42791
   R10        3.86722  -0.00614   0.00000  -0.06262  -0.06289   3.80433
    A1        2.17940   0.00124   0.00000  -0.00140  -0.00137   2.17803
    A2        1.32826  -0.00247   0.00000  -0.00061  -0.00056   1.32771
    A3        2.10349  -0.00226   0.00000  -0.00441  -0.00492   2.09857
    A4        1.94437   0.00328   0.00000   0.01004   0.01038   1.95475
    A5        2.54381   0.00667   0.00000  -0.02336  -0.02317   2.52064
    A6        2.86823   0.00101   0.00000  -0.06773  -0.06795   2.80028
    A7        1.55991  -0.00482   0.00000   0.02835   0.02848   1.58839
    A8        1.83304   0.00452   0.00000   0.03689   0.03760   1.87065
    A9        2.12135   0.00107   0.00000   0.00502   0.00500   2.12635
   A10        2.12558  -0.00236   0.00000  -0.01036  -0.01038   2.11521
   A11        2.03331   0.00129   0.00000   0.00462   0.00460   2.03791
   A12        1.22350   0.00972   0.00000   0.03419   0.03438   1.25788
   A13        1.29630   0.00368   0.00000  -0.02273  -0.02257   1.27373
   A14        1.21990   0.00776   0.00000   0.01041   0.01155   1.23145
    D1        2.62216   0.00932   0.00000   0.02399   0.02371   2.64586
    D2       -0.12062   0.00336   0.00000  -0.00419  -0.00456  -0.12518
    D3       -2.70838  -0.00434   0.00000   0.03965   0.03909  -2.66929
    D4        0.83203  -0.01031   0.00000   0.01146   0.01082   0.84285
    D5       -0.13547   0.00121   0.00000   0.00798   0.00785  -0.12762
    D6       -2.87824  -0.00476   0.00000  -0.02021  -0.02042  -2.89866
    D7       -1.01470   0.00113   0.00000   0.07016   0.07024  -0.94445
    D8        3.09579   0.00470   0.00000   0.09614   0.09558  -3.09181
    D9        1.45263   0.00071   0.00000  -0.06094  -0.06103   1.39160
   D10       -1.77420   0.00067   0.00000  -0.07117  -0.07125  -1.84546
   D11       -2.10272   0.00642   0.00000  -0.03605  -0.03596  -2.13868
   D12        0.95363   0.00637   0.00000  -0.04628  -0.04619   0.90744
   D13       -1.09359   0.00162   0.00000   0.03778   0.03733  -1.05626
   D14        2.15677  -0.00018   0.00000   0.05794   0.05578   2.21254
   D15        0.60727   0.00249   0.00000   0.01360   0.01354   0.62080
   D16        1.14859   0.00236   0.00000   0.03195   0.03100   1.17959
         Item               Value     Threshold  Converged?
 Maximum Force            0.036561     0.000450     NO 
 RMS     Force            0.008509     0.000300     NO 
 Maximum Displacement     0.123728     0.001800     NO 
 RMS     Displacement     0.040144     0.001200     NO 
 Predicted change in Energy=-3.185524D-03
 GradGradGradGradGradGradGradGradGradGradGradGradGradGradGradGradGradGrad

                          Input orientation:                          
 ---------------------------------------------------------------------
 Center     Atomic      Atomic             Coordinates (Angstroms)
 Number     Number       Type             X           Y           Z
 ---------------------------------------------------------------------
      1          6           0       -2.475331   -0.584606    1.190601
      2          6           0       -1.205828   -0.205986    1.216494
      3          6           0        0.079607   -0.178890    0.965534
      4          1           0       -1.472868    0.693691    2.848561
      5          1           0       -3.175901   -0.437484    1.992842
      6          1           0       -2.567877    1.443483    1.611932
      7          1           0       -2.801992   -1.362063    0.501022
      8          1           0        0.474129    0.250373    0.054206
      9          1           0        0.798578   -0.505919    1.698939
 ---------------------------------------------------------------------
                    Distance matrix (angstroms):
                    1          2          3          4          5
     1  C    0.000000
     2  C    1.325013   0.000000
     3  C    2.596722   1.309984   0.000000
     4  H    2.321165   1.882650   2.591788   0.000000
     5  H    1.075191   2.130139   3.423531   2.216333   0.000000
     6  H    2.073458   2.175384   3.171608   1.813969   2.013163
     7  H    1.089343   2.096702   3.149490   3.391702   1.794487
     8  H    3.269235   2.093188   1.081867   3.434494   4.189770
     9  H    3.314072   2.083351   1.077844   2.814278   3.985918
                    6          7          8          9
     6  H    0.000000
     7  H    3.026553   0.000000
     8  H    3.619920   3.678664   0.000000
     9  H    3.891112   3.889999   1.839128   0.000000
 Stoichiometry    C3H6
 Framework group  C1[X(C3H6)]
 Deg. of freedom    21
 Full point group                 C1      NOp   1
 Largest Abelian subgroup         C1      NOp   1
 Largest concise Abelian subgroup C1      NOp   1
                         Standard orientation:                         
 ---------------------------------------------------------------------
 Center     Atomic      Atomic             Coordinates (Angstroms)
 Number     Number       Type             X           Y           Z
 ---------------------------------------------------------------------
      1          6           0        1.224885   -0.289683   -0.028879
      2          6           0       -0.059887    0.032601    0.005111
      3          6           0       -1.364032   -0.090902    0.002095
      4          1           0        0.333242    1.792881   -0.534552
      5          1           0        2.007336    0.346540   -0.401738
      6          1           0        1.184256    1.487730    1.038071
      7          1           0        1.529251   -1.335169    0.002578
      8          1           0       -1.911639   -0.382263    0.888475
      9          1           0       -1.948245    0.178187   -0.862795
 ---------------------------------------------------------------------
 Rotational constants (GHZ):          43.4500026           8.5761193           7.8502342
 Standard basis: 6-31G(d,p) (6D, 7F)
 There are    75 symmetry adapted cartesian basis functions of A   symmetry.
 There are    75 symmetry adapted basis functions of A   symmetry.
    75 basis functions,   126 primitive gaussians,    75 cartesian basis functions
    12 alpha electrons       12 beta electrons
       nuclear repulsion energy        69.0564333089 Hartrees.
 NAtoms=    9 NActive=    9 NUniq=    9 SFac= 1.00D+00 NAtFMM=   60 NAOKFM=F Big=F
 Integral buffers will be    131072 words long.
 Raffenetti 2 integral format.
 Two-electron integral symmetry is turned on.
 One-electron integrals computed using PRISM.
 NBasis=    75 RedAO= T EigKep=  1.99D-03  NBF=    75
 NBsUse=    75 1.00D-06 EigRej= -1.00D+00 NBFU=    75
 Initial guess from the checkpoint file:  "/scratch/brown/zhao922/pyGSM/new-benchmarking/R1-3/TS-folder/Gau-114648.chk"
 B after Tr=    -0.000000   -0.000000    0.000000
         Rot=    0.999975   -0.006281   -0.002172    0.002379 Ang=  -0.81 deg.
 ExpMin= 1.61D-01 ExpMax= 3.05D+03 ExpMxC= 4.57D+02 IAcc=3 IRadAn=         5 AccDes= 0.00D+00
 Harris functional with IExCor=  402 and IRadAn=       5 diagonalized for initial guess.
 HarFok:  IExCor=  402 AccDes= 0.00D+00 IRadAn=         5 IDoV= 1 UseB2=F ITyADJ=14
 ICtDFT=  3500011 ScaDFX=  1.000000  1.000000  1.000000  1.000000
 FoFCou: FMM=F IPFlag=           0 FMFlag=      100000 FMFlg1=           0
         NFxFlg=           0 DoJE=T BraDBF=F KetDBF=T FulRan=T
         wScrn=  0.000000 ICntrl=       500 IOpCl=  0 I1Cent=   200000004 NGrid=           0
         NMat0=    1 NMatS0=      1 NMatT0=    0 NMatD0=    1 NMtDS0=    0 NMtDT0=    0
 Petite list used in FoFCou.
 Keep R1 ints in memory in canonical form, NReq=25608259.
 Requested convergence on RMS density matrix=1.00D-08 within 128 cycles.
 Requested convergence on MAX density matrix=1.00D-06.
 Requested convergence on             energy=1.00D-06.
 No special actions if energy rises.
 Integral accuracy reduced to 1.0D-05 until final iterations.
 Initial convergence to 1.0D-05 achieved.  Increase integral accuracy.
 SCF Done:  E(RB3LYP) =  -117.660880076     A.U. after   13 cycles
            NFock= 13  Conv=0.66D-08     -V/T= 2.0104
 DoSCS=F DFT=T ScalE2(SS,OS)=  1.000000  1.000000
 Range of M.O.s used for correlation:     1    75
 NBasis=    75 NAE=    12 NBE=    12 NFC=     0 NFV=     0
 NROrb=     75 NOA=    12 NOB=    12 NVA=    63 NVB=    63
 Symmetrizing basis deriv contribution to polar:
 IMax=3 JMax=2 DiffMx= 0.00D+00
 G2DrvN: will do    10 centers at a time, making    1 passes.
 Calling FoFCou, ICntrl=  3107 FMM=F I1Cent=   0 AccDes= 0.00D+00.
 End of G2Drv F.D. properties file   721 does not exist.
 End of G2Drv F.D. properties file   722 does not exist.
 End of G2Drv F.D. properties file   788 does not exist.
          IDoAtm=111111111
          Differentiating once with respect to electric field.
                with respect to dipole field.
          Differentiating once with respect to nuclear coordinates.
 Keep R1 ints in memory in canonical form, NReq=25532604.
          There are    30 degrees of freedom in the 1st order CPHF.  IDoFFX=6 NUNeed=     3.
     27 vectors produced by pass  0 Test12= 2.52D-15 3.33D-09 XBig12= 1.36D+02 8.42D+00.
 AX will form    27 AO Fock derivatives at one time.
     27 vectors produced by pass  1 Test12= 2.52D-15 3.33D-09 XBig12= 1.37D+01 9.38D-01.
     27 vectors produced by pass  2 Test12= 2.52D-15 3.33D-09 XBig12= 1.21D-01 8.77D-02.
     27 vectors produced by pass  3 Test12= 2.52D-15 3.33D-09 XBig12= 1.56D-04 2.45D-03.
     27 vectors produced by pass  4 Test12= 2.52D-15 3.33D-09 XBig12= 8.01D-08 6.23D-05.
     11 vectors produced by pass  5 Test12= 2.52D-15 3.33D-09 XBig12= 3.47D-11 1.02D-06.
      3 vectors produced by pass  6 Test12= 2.52D-15 3.33D-09 XBig12= 1.42D-14 2.99D-08.
 InvSVY:  IOpt=1 It=  1 EMax= 4.44D-15
 Solved reduced A of dimension   149 with    30 vectors.
 Isotropic polarizability for W=    0.000000       47.12 Bohr**3.
 End of Minotr F.D. properties file   721 does not exist.
 End of Minotr F.D. properties file   722 does not exist.
 End of Minotr F.D. properties file   788 does not exist.
 Calling FoFJK, ICntrl=    100127 FMM=F ISym2X=0 I1Cent= 0 IOpClX= 0 NMat=1 NMatS=1 NMatT=0.
 ***** Axes restored to original set *****
 -------------------------------------------------------------------
 Center     Atomic                   Forces (Hartrees/Bohr)
 Number     Number              X              Y              Z
 -------------------------------------------------------------------
      1        6          -0.020807130   -0.010029153   -0.002880019
      2        6           0.007124996   -0.004540597    0.030530208
      3        6           0.007254941    0.005600039   -0.013854880
      4        1          -0.018314618    0.014452799   -0.036650367
      5        1          -0.001926126    0.012124739   -0.002460189
      6        1           0.018114545   -0.015073991    0.030503563
      7        1           0.004790217   -0.002770968   -0.005690451
      8        1           0.001743707    0.003198066   -0.003070024
      9        1           0.002019470   -0.002960934    0.003572157
 -------------------------------------------------------------------
 Cartesian Forces:  Max     0.036650367 RMS     0.014224011
 FormGI is forming the generalized inverse of G from B-inverse, IUseBI=4.

 GradGradGradGradGradGradGradGradGradGradGradGradGradGradGradGradGradGrad
 Berny optimization.
 Internal  Forces:  Max     0.031343258 RMS     0.007131474
 Search for a saddle point.
 Step number   2 out of a maximum of  100
 All quantities printed in internal units (Hartrees-Bohrs-Radians)
 Swapping is turned off.
 Second derivative matrix not updated -- analytic derivatives used.
 ITU=  0  0
     Eigenvalues ---   -0.05334  -0.01332  -0.00302   0.00320   0.01013
     Eigenvalues ---    0.01635   0.02150   0.02806   0.03182   0.04339
     Eigenvalues ---    0.07127   0.08112   0.09500   0.10079   0.10545
     Eigenvalues ---    0.34881   0.35873   0.36850   0.37912   0.54003
     Eigenvalues ---    0.67756
 Eigenvectors required to have negative eigenvalues:
                          R9        R6        R3        D4        D12
   1                   -0.58517   0.48804   0.28229  -0.19206   0.19020
                          D11       A5        D14       D7        A6
   1                    0.18264   0.16918  -0.14756  -0.14566   0.14140
 RFO step:  Lambda0=6.210779937D-03 Lambda=-3.96993789D-02.
 Linear search not attempted -- option 19 set.
 Maximum step size (   0.300) exceeded in Quadratic search.
    -- Step size scaled by   0.280
 Iteration  1 RMS(Cart)=  0.03388815 RMS(Int)=  0.00617692
 Iteration  2 RMS(Cart)=  0.00533723 RMS(Int)=  0.00067120
 Iteration  3 RMS(Cart)=  0.00001025 RMS(Int)=  0.00067106
 Iteration  4 RMS(Cart)=  0.00000001 RMS(Int)=  0.00067106
 Variable       Old X    -DE/DX   Delta X   Delta X   Delta X     New X
                                 (Linear)    (Quad)   (Total)
    R1        2.50391   0.01380   0.00000   0.01337   0.01318   2.51709
    R2        2.03182   0.00180   0.00000   0.00123   0.00153   2.03335
    R3        3.91827   0.00548   0.00000  -0.01671  -0.01790   3.90037
    R4        2.05856   0.00414   0.00000   0.00276   0.00276   2.06132
    R5        2.47551   0.01349   0.00000   0.01580   0.01580   2.49131
    R6        3.55769  -0.00964   0.00000  -0.24119  -0.24074   3.31695
    R7        2.04443   0.00449   0.00000   0.00260   0.00260   2.04703
    R8        2.03683   0.00468   0.00000   0.00286   0.00286   2.03969
    R9        3.42791  -0.03134   0.00000  -0.13874  -0.13760   3.29031
   R10        3.80433  -0.00571   0.00000  -0.03365  -0.03384   3.77048
    A1        2.17803   0.00024   0.00000  -0.00798  -0.00843   2.16960
    A2        1.32771  -0.00293   0.00000  -0.01803  -0.01946   1.30824
    A3        2.09857  -0.00091   0.00000   0.00803   0.00888   2.10745
    A4        1.95475   0.00246   0.00000   0.00513   0.00469   1.95944
    A5        2.52064   0.00549   0.00000   0.01305   0.01394   2.53458
    A6        2.80028  -0.00105   0.00000  -0.05915  -0.05915   2.74114
    A7        1.58839  -0.00285   0.00000   0.02605   0.02576   1.61415
    A8        1.87065   0.00448   0.00000   0.03236   0.03311   1.90376
    A9        2.12635   0.00093   0.00000   0.00415   0.00414   2.13049
   A10        2.11521  -0.00189   0.00000  -0.00713  -0.00714   2.10807
   A11        2.03791   0.00094   0.00000   0.00227   0.00226   2.04017
   A12        1.25788   0.00940   0.00000   0.06214   0.06407   1.32195
   A13        1.27373   0.00240   0.00000  -0.01847  -0.01897   1.25476
   A14        1.23145   0.00645   0.00000   0.01944   0.01977   1.25122
    D1        2.64586   0.00774   0.00000   0.02985   0.02981   2.67567
    D2       -0.12518   0.00241   0.00000   0.00258   0.00245  -0.12273
    D3       -2.66929  -0.00327   0.00000   0.00359   0.00287  -2.66642
    D4        0.84285  -0.00860   0.00000  -0.02367  -0.02449   0.81837
    D5       -0.12762   0.00114   0.00000   0.01087   0.01064  -0.11698
    D6       -2.89866  -0.00419   0.00000  -0.01640  -0.01672  -2.91538
    D7       -0.94445   0.00265   0.00000   0.05974   0.06001  -0.88444
    D8       -3.09181   0.00535   0.00000   0.06423   0.06481  -3.02700
    D9        1.39160  -0.00110   0.00000  -0.05078  -0.05087   1.34073
   D10       -1.84546  -0.00138   0.00000  -0.05979  -0.05989  -1.90534
   D11       -2.13868   0.00393   0.00000  -0.02595  -0.02586  -2.16454
   D12        0.90744   0.00365   0.00000  -0.03496  -0.03487   0.87257
   D13       -1.05626   0.00158   0.00000   0.01674   0.01649  -1.03978
   D14        2.21254   0.00038   0.00000   0.03034   0.02852   2.24107
   D15        0.62080   0.00181   0.00000   0.00382   0.00398   0.62478
   D16        1.17959   0.00167   0.00000   0.01069   0.00969   1.18927
         Item               Value     Threshold  Converged?
 Maximum Force            0.031343     0.000450     NO 
 RMS     Force            0.007131     0.000300     NO 
 Maximum Displacement     0.152507     0.001800     NO 
 RMS     Displacement     0.036507     0.001200     NO 
 Predicted change in Energy=-9.853780D-03
 GradGradGradGradGradGradGradGradGradGradGradGradGradGradGradGradGradGrad

                          Input orientation:                          
 ---------------------------------------------------------------------
 Center     Atomic      Atomic             Coordinates (Angstroms)
 Number     Number       Type             X           Y           Z
 ---------------------------------------------------------------------
      1          6           0       -2.476168   -0.578244    1.196265
      2          6           0       -1.208060   -0.174604    1.252539
      3          6           0        0.080473   -0.177640    0.973784
      4          1           0       -1.465215    0.673100    2.767858
      5          1           0       -3.193094   -0.437405    1.986176
      6          1           0       -2.573505    1.430806    1.659167
      7          1           0       -2.784640   -1.351139    0.491051
      8          1           0        0.467997    0.213365    0.040858
      9          1           0        0.804730   -0.485640    1.712433
 ---------------------------------------------------------------------
                    Distance matrix (angstroms):
                    1          2          3          4          5
     1  C    0.000000
     2  C    1.331988   0.000000
     3  C    2.597383   1.318344   0.000000
     4  H    2.248953   1.755255   2.516269   0.000000
     5  H    1.076001   2.132521   3.436373   2.197683   0.000000
     6  H    2.063986   2.146423   3.178121   1.741155   1.995254
     7  H    1.090802   2.109432   3.133529   3.319981   1.799207
     8  H    3.260325   2.104247   1.083241   3.374195   4.196588
     9  H    3.322544   2.087958   1.079358   2.758487   4.007475
                    6          7          8          9
     6  H    0.000000
     7  H    3.024614   0.000000
     8  H    3.654015   3.637306   0.000000
     9  H    3.884337   3.889015   1.842867   0.000000
 Stoichiometry    C3H6
 Framework group  C1[X(C3H6)]
 Deg. of freedom    21
 Full point group                 C1      NOp   1
 Largest Abelian subgroup         C1      NOp   1
 Largest concise Abelian subgroup C1      NOp   1
                         Standard orientation:                         
 ---------------------------------------------------------------------
 Center     Atomic      Atomic             Coordinates (Angstroms)
 Number     Number       Type             X           Y           Z
 ---------------------------------------------------------------------
      1          6           0        1.224410   -0.295585   -0.029165
      2          6           0       -0.056864    0.067094    0.002325
      3          6           0       -1.365089   -0.095938    0.003019
      4          1           0        0.316449    1.708528   -0.494919
      5          1           0        2.021600    0.325403   -0.398812
      6          1           0        1.200497    1.498848    0.990381
      7          1           0        1.507364   -1.348074    0.016133
      8          1           0       -1.902929   -0.427044    0.883080
      9          1           0       -1.957721    0.188916   -0.852935
 ---------------------------------------------------------------------
 Rotational constants (GHZ):          44.4577031           8.5947100           7.8570688
 Standard basis: 6-31G(d,p) (6D, 7F)
 There are    75 symmetry adapted cartesian basis functions of A   symmetry.
 There are    75 symmetry adapted basis functions of A   symmetry.
    75 basis functions,   126 primitive gaussians,    75 cartesian basis functions
    12 alpha electrons       12 beta electrons
       nuclear repulsion energy        69.1054861398 Hartrees.
 NAtoms=    9 NActive=    9 NUniq=    9 SFac= 1.00D+00 NAtFMM=   60 NAOKFM=F Big=F
 Integral buffers will be    131072 words long.
 Raffenetti 2 integral format.
 Two-electron integral symmetry is turned on.
 One-electron integrals computed using PRISM.
 NBasis=    75 RedAO= T EigKep=  2.22D-03  NBF=    75
 NBsUse=    75 1.00D-06 EigRej= -1.00D+00 NBFU=    75
 Initial guess from the checkpoint file:  "/scratch/brown/zhao922/pyGSM/new-benchmarking/R1-3/TS-folder/Gau-114648.chk"
 B after Tr=    -0.000000   -0.000000    0.000000
         Rot=    0.999998    0.001449   -0.000913    0.000599 Ang=   0.21 deg.
 ExpMin= 1.61D-01 ExpMax= 3.05D+03 ExpMxC= 4.57D+02 IAcc=3 IRadAn=         5 AccDes= 0.00D+00
 Harris functional with IExCor=  402 and IRadAn=       5 diagonalized for initial guess.
 HarFok:  IExCor=  402 AccDes= 0.00D+00 IRadAn=         5 IDoV= 1 UseB2=F ITyADJ=14
 ICtDFT=  3500011 ScaDFX=  1.000000  1.000000  1.000000  1.000000
 FoFCou: FMM=F IPFlag=           0 FMFlag=      100000 FMFlg1=           0
         NFxFlg=           0 DoJE=T BraDBF=F KetDBF=T FulRan=T
         wScrn=  0.000000 ICntrl=       500 IOpCl=  0 I1Cent=   200000004 NGrid=           0
         NMat0=    1 NMatS0=      1 NMatT0=    0 NMatD0=    1 NMtDS0=    0 NMtDT0=    0
 Petite list used in FoFCou.
 Keep R1 ints in memory in canonical form, NReq=25608259.
 Requested convergence on RMS density matrix=1.00D-08 within 128 cycles.
 Requested convergence on MAX density matrix=1.00D-06.
 Requested convergence on             energy=1.00D-06.
 No special actions if energy rises.
 Integral accuracy reduced to 1.0D-05 until final iterations.
 Initial convergence to 1.0D-05 achieved.  Increase integral accuracy.
 SCF Done:  E(RB3LYP) =  -117.670781514     A.U. after   13 cycles
            NFock= 13  Conv=0.77D-08     -V/T= 2.0107
 DoSCS=F DFT=T ScalE2(SS,OS)=  1.000000  1.000000
 Range of M.O.s used for correlation:     1    75
 NBasis=    75 NAE=    12 NBE=    12 NFC=     0 NFV=     0
 NROrb=     75 NOA=    12 NOB=    12 NVA=    63 NVB=    63
 Symmetrizing basis deriv contribution to polar:
 IMax=3 JMax=2 DiffMx= 0.00D+00
 G2DrvN: will do    10 centers at a time, making    1 passes.
 Calling FoFCou, ICntrl=  3107 FMM=F I1Cent=   0 AccDes= 0.00D+00.
 End of G2Drv F.D. properties file   721 does not exist.
 End of G2Drv F.D. properties file   722 does not exist.
 End of G2Drv F.D. properties file   788 does not exist.
          IDoAtm=111111111
          Differentiating once with respect to electric field.
                with respect to dipole field.
          Differentiating once with respect to nuclear coordinates.
 Keep R1 ints in memory in canonical form, NReq=25532604.
          There are    30 degrees of freedom in the 1st order CPHF.  IDoFFX=6 NUNeed=     3.
     27 vectors produced by pass  0 Test12= 2.52D-15 3.33D-09 XBig12= 1.51D+02 9.68D+00.
 AX will form    27 AO Fock derivatives at one time.
     27 vectors produced by pass  1 Test12= 2.52D-15 3.33D-09 XBig12= 1.52D+01 9.25D-01.
     27 vectors produced by pass  2 Test12= 2.52D-15 3.33D-09 XBig12= 1.42D-01 8.57D-02.
     27 vectors produced by pass  3 Test12= 2.52D-15 3.33D-09 XBig12= 2.00D-04 2.75D-03.
     27 vectors produced by pass  4 Test12= 2.52D-15 3.33D-09 XBig12= 9.82D-08 7.12D-05.
     10 vectors produced by pass  5 Test12= 2.52D-15 3.33D-09 XBig12= 4.01D-11 9.75D-07.
      3 vectors produced by pass  6 Test12= 2.52D-15 3.33D-09 XBig12= 1.57D-14 3.14D-08.
 InvSVY:  IOpt=1 It=  1 EMax= 1.42D-14
 Solved reduced A of dimension   148 with    30 vectors.
 Isotropic polarizability for W=    0.000000       46.97 Bohr**3.
 End of Minotr F.D. properties file   721 does not exist.
 End of Minotr F.D. properties file   722 does not exist.
 End of Minotr F.D. properties file   788 does not exist.
 Calling FoFJK, ICntrl=    100127 FMM=F ISym2X=0 I1Cent= 0 IOpClX= 0 NMat=1 NMatS=1 NMatT=0.
 ***** Axes restored to original set *****
 -------------------------------------------------------------------
 Center     Atomic                   Forces (Hartrees/Bohr)
 Number     Number              X              Y              Z
 -------------------------------------------------------------------
      1        6          -0.018641385   -0.008507733   -0.006032570
      2        6           0.005431434   -0.001747588    0.039007888
      3        6           0.005443111    0.004766104   -0.014287941
      4        1          -0.016725778    0.010937159   -0.039718965
      5        1          -0.001360292    0.011092473   -0.002220897
      6        1           0.017889465   -0.015095892    0.027665663
      7        1           0.005184918   -0.001921614   -0.004895197
      8        1           0.001232718    0.001181162   -0.002841116
      9        1           0.001545809   -0.000704071    0.003323136
 -------------------------------------------------------------------
 Cartesian Forces:  Max     0.039718965 RMS     0.014614161
 FormGI is forming the generalized inverse of G from B-inverse, IUseBI=4.

 GradGradGradGradGradGradGradGradGradGradGradGradGradGradGradGradGradGrad
 Berny optimization.
 Internal  Forces:  Max     0.029559583 RMS     0.006816736
 Search for a saddle point.
 Step number   3 out of a maximum of  100
 All quantities printed in internal units (Hartrees-Bohrs-Radians)
 Swapping is turned off.
 Second derivative matrix not updated -- analytic derivatives used.
 ITU=  0  0  0
     Eigenvalues ---   -0.06369  -0.01336  -0.00217   0.00435   0.01107
     Eigenvalues ---    0.01825   0.02167   0.02738   0.03185   0.04379
     Eigenvalues ---    0.07302   0.08323   0.09907   0.10119   0.10694
     Eigenvalues ---    0.34676   0.35657   0.36582   0.37587   0.52091
     Eigenvalues ---    0.65149
 Eigenvectors required to have negative eigenvalues:
                          R9        R6        R3        D12       D11
   1                    0.54110  -0.53956  -0.26534  -0.18938  -0.18317
                          D4        A5        D7        A6        D14
   1                    0.18065  -0.16767   0.15697  -0.15529   0.14403
 RFO step:  Lambda0=1.724740470D-03 Lambda=-4.33844537D-02.
 Linear search not attempted -- option 19 set.
 Maximum step size (   0.300) exceeded in Quadratic search.
    -- Step size scaled by   0.283
 Iteration  1 RMS(Cart)=  0.03479901 RMS(Int)=  0.00297125
 Iteration  2 RMS(Cart)=  0.00264123 RMS(Int)=  0.00080429
 Iteration  3 RMS(Cart)=  0.00000201 RMS(Int)=  0.00080429
 Iteration  4 RMS(Cart)=  0.00000000 RMS(Int)=  0.00080429
 Variable       Old X    -DE/DX   Delta X   Delta X   Delta X     New X
                                 (Linear)    (Quad)   (Total)
    R1        2.51709   0.01057   0.00000   0.00825   0.00798   2.52507
    R2        2.03335   0.00139   0.00000   0.00176   0.00203   2.03538
    R3        3.90037   0.00435   0.00000   0.02606   0.02428   3.92465
    R4        2.06132   0.00306   0.00000   0.00110   0.00110   2.06242
    R5        2.49131   0.01094   0.00000   0.01529   0.01529   2.50660
    R6        3.31695  -0.01517   0.00000  -0.21762  -0.21659   3.10037
    R7        2.04703   0.00331   0.00000   0.00167   0.00167   2.04870
    R8        2.03969   0.00351   0.00000   0.00239   0.00239   2.04208
    R9        3.29031  -0.02956   0.00000  -0.16846  -0.16731   3.12299
   R10        3.77048  -0.00523   0.00000  -0.02132  -0.02123   3.74925
    A1        2.16960  -0.00055   0.00000  -0.01139  -0.01216   2.15744
    A2        1.30824  -0.00356   0.00000  -0.02735  -0.02926   1.27898
    A3        2.10745   0.00011   0.00000   0.01292   0.01412   2.12157
    A4        1.95944   0.00197   0.00000   0.00567   0.00510   1.96454
    A5        2.53458   0.00527   0.00000   0.03018   0.03114   2.56573
    A6        2.74114  -0.00271   0.00000  -0.05179  -0.05185   2.68929
    A7        1.61415  -0.00131   0.00000   0.02522   0.02513   1.63928
    A8        1.90376   0.00453   0.00000   0.02702   0.02750   1.93126
    A9        2.13049   0.00083   0.00000   0.00344   0.00343   2.13392
   A10        2.10807  -0.00162   0.00000  -0.00571  -0.00572   2.10235
   A11        2.04017   0.00073   0.00000   0.00151   0.00150   2.04168
   A12        1.32195   0.01015   0.00000   0.07562   0.07820   1.40015
   A13        1.25476   0.00116   0.00000  -0.01953  -0.02056   1.23420
   A14        1.25122   0.00580   0.00000   0.02215   0.02212   1.27333
    D1        2.67567   0.00718   0.00000   0.03995   0.04009   2.71576
    D2       -0.12273   0.00214   0.00000   0.01400   0.01413  -0.10860
    D3       -2.66642  -0.00289   0.00000  -0.01157  -0.01229  -2.67871
    D4        0.81837  -0.00793   0.00000  -0.03752  -0.03825   0.78012
    D5       -0.11698   0.00127   0.00000   0.01258   0.01234  -0.10464
    D6       -2.91538  -0.00377   0.00000  -0.01337  -0.01362  -2.92900
    D7       -0.88444   0.00407   0.00000   0.05400   0.05427  -0.83017
    D8       -3.02700   0.00616   0.00000   0.05381   0.05463  -2.97237
    D9        1.34073  -0.00235   0.00000  -0.03751  -0.03758   1.30315
   D10       -1.90534  -0.00286   0.00000  -0.04625  -0.04631  -1.95166
   D11       -2.16454   0.00240   0.00000  -0.01301  -0.01295  -2.17748
   D12        0.87257   0.00189   0.00000  -0.02175  -0.02168   0.85090
   D13       -1.03978   0.00147   0.00000   0.00648   0.00642  -1.03336
   D14        2.24107   0.00061   0.00000   0.01476   0.01338   2.25445
   D15        0.62478   0.00137   0.00000  -0.00139  -0.00093   0.62386
   D16        1.18927   0.00104   0.00000  -0.00202  -0.00309   1.18619
         Item               Value     Threshold  Converged?
 Maximum Force            0.029560     0.000450     NO 
 RMS     Force            0.006817     0.000300     NO 
 Maximum Displacement     0.153255     0.001800     NO 
 RMS     Displacement     0.036033     0.001200     NO 
 Predicted change in Energy=-1.218253D-02
 GradGradGradGradGradGradGradGradGradGradGradGradGradGradGradGradGradGrad

                          Input orientation:                          
 ---------------------------------------------------------------------
 Center     Atomic      Atomic             Coordinates (Angstroms)
 Number     Number       Type             X           Y           Z
 ---------------------------------------------------------------------
      1          6           0       -2.475445   -0.580698    1.197205
      2          6           0       -1.213092   -0.150943    1.282243
      3          6           0        0.078540   -0.175945    0.981418
      4          1           0       -1.464563    0.658877    2.686759
      5          1           0       -3.209735   -0.430713    1.970779
      6          1           0       -2.561876    1.427600    1.719229
      7          1           0       -2.768500   -1.355098    0.486188
      8          1           0        0.458752    0.184111    0.032142
      9          1           0        0.808436   -0.464593    1.724169
 ---------------------------------------------------------------------
                    Distance matrix (angstroms):
                    1          2          3          4          5
     1  C    0.000000
     2  C    1.336209   0.000000
     3  C    2.594846   1.326437   0.000000
     4  H    2.185680   1.640643   2.446688   0.000000
     5  H    1.077077   2.130478   3.443326   2.178407   0.000000
     6  H    2.076833   2.121785   3.176085   1.652617   1.984017
     7  H    1.091386   2.122024   3.121104   3.255589   1.803660
     8  H    3.248356   2.114256   1.084125   3.312331   4.194535
     9  H    3.327920   2.092905   1.080623   2.712063   4.025875
                    6          7          8          9
     6  H    0.000000
     7  H    3.050654   0.000000
     8  H    3.676509   3.604231   0.000000
     9  H    3.865154   3.888454   1.845549   0.000000
 Stoichiometry    C3H6
 Framework group  C1[X(C3H6)]
 Deg. of freedom    21
 Full point group                 C1      NOp   1
 Largest Abelian subgroup         C1      NOp   1
 Largest concise Abelian subgroup C1      NOp   1
                         Standard orientation:                         
 ---------------------------------------------------------------------
 Center     Atomic      Atomic             Coordinates (Angstroms)
 Number     Number       Type             X           Y           Z
 ---------------------------------------------------------------------
      1          6           0        1.222780   -0.303283   -0.027132
      2          6           0       -0.052276    0.095487   -0.001268
      3          6           0       -1.364015   -0.101369    0.003700
      4          1           0        0.300789    1.630402   -0.460713
      5          1           0        2.032529    0.311099   -0.383413
      6          1           0        1.192749    1.540828    0.927641
      7          1           0        1.492225   -1.359343    0.029968
      8          1           0       -1.892343   -0.458348    0.880490
      9          1           0       -1.964884    0.190352   -0.845771
 ---------------------------------------------------------------------
 Rotational constants (GHZ):          45.0015792           8.6406128           7.8671108
 Standard basis: 6-31G(d,p) (6D, 7F)
 There are    75 symmetry adapted cartesian basis functions of A   symmetry.
 There are    75 symmetry adapted basis functions of A   symmetry.
    75 basis functions,   126 primitive gaussians,    75 cartesian basis functions
    12 alpha electrons       12 beta electrons
       nuclear repulsion energy        69.1936061030 Hartrees.
 NAtoms=    9 NActive=    9 NUniq=    9 SFac= 1.00D+00 NAtFMM=   60 NAOKFM=F Big=F
 Integral buffers will be    131072 words long.
 Raffenetti 2 integral format.
 Two-electron integral symmetry is turned on.
 One-electron integrals computed using PRISM.
 NBasis=    75 RedAO= T EigKep=  2.41D-03  NBF=    75
 NBsUse=    75 1.00D-06 EigRej= -1.00D+00 NBFU=    75
 Initial guess from the checkpoint file:  "/scratch/brown/zhao922/pyGSM/new-benchmarking/R1-3/TS-folder/Gau-114648.chk"
 B after Tr=     0.000000    0.000000   -0.000000
         Rot=    0.999986    0.005176   -0.000291   -0.000356 Ang=   0.60 deg.
 ExpMin= 1.61D-01 ExpMax= 3.05D+03 ExpMxC= 4.57D+02 IAcc=3 IRadAn=         5 AccDes= 0.00D+00
 Harris functional with IExCor=  402 and IRadAn=       5 diagonalized for initial guess.
 HarFok:  IExCor=  402 AccDes= 0.00D+00 IRadAn=         5 IDoV= 1 UseB2=F ITyADJ=14
 ICtDFT=  3500011 ScaDFX=  1.000000  1.000000  1.000000  1.000000
 FoFCou: FMM=F IPFlag=           0 FMFlag=      100000 FMFlg1=           0
         NFxFlg=           0 DoJE=T BraDBF=F KetDBF=T FulRan=T
         wScrn=  0.000000 ICntrl=       500 IOpCl=  0 I1Cent=   200000004 NGrid=           0
         NMat0=    1 NMatS0=      1 NMatT0=    0 NMatD0=    1 NMtDS0=    0 NMtDT0=    0
 Petite list used in FoFCou.
 Keep R1 ints in memory in canonical form, NReq=25608259.
 Requested convergence on RMS density matrix=1.00D-08 within 128 cycles.
 Requested convergence on MAX density matrix=1.00D-06.
 Requested convergence on             energy=1.00D-06.
 No special actions if energy rises.
 Integral accuracy reduced to 1.0D-05 until final iterations.
 Initial convergence to 1.0D-05 achieved.  Increase integral accuracy.
 SCF Done:  E(RB3LYP) =  -117.682920743     A.U. after   13 cycles
            NFock= 13  Conv=0.56D-08     -V/T= 2.0108
 DoSCS=F DFT=T ScalE2(SS,OS)=  1.000000  1.000000
 Range of M.O.s used for correlation:     1    75
 NBasis=    75 NAE=    12 NBE=    12 NFC=     0 NFV=     0
 NROrb=     75 NOA=    12 NOB=    12 NVA=    63 NVB=    63
 Symmetrizing basis deriv contribution to polar:
 IMax=3 JMax=2 DiffMx= 0.00D+00
 G2DrvN: will do    10 centers at a time, making    1 passes.
 Calling FoFCou, ICntrl=  3107 FMM=F I1Cent=   0 AccDes= 0.00D+00.
 End of G2Drv F.D. properties file   721 does not exist.
 End of G2Drv F.D. properties file   722 does not exist.
 End of G2Drv F.D. properties file   788 does not exist.
          IDoAtm=111111111
          Differentiating once with respect to electric field.
                with respect to dipole field.
          Differentiating once with respect to nuclear coordinates.
 Keep R1 ints in memory in canonical form, NReq=25532604.
          There are    30 degrees of freedom in the 1st order CPHF.  IDoFFX=6 NUNeed=     3.
     27 vectors produced by pass  0 Test12= 2.52D-15 3.33D-09 XBig12= 1.64D+02 1.04D+01.
 AX will form    27 AO Fock derivatives at one time.
     27 vectors produced by pass  1 Test12= 2.52D-15 3.33D-09 XBig12= 1.67D+01 9.58D-01.
     27 vectors produced by pass  2 Test12= 2.52D-15 3.33D-09 XBig12= 1.57D-01 8.25D-02.
     27 vectors produced by pass  3 Test12= 2.52D-15 3.33D-09 XBig12= 2.36D-04 2.86D-03.
     27 vectors produced by pass  4 Test12= 2.52D-15 3.33D-09 XBig12= 1.18D-07 7.80D-05.
     10 vectors produced by pass  5 Test12= 2.52D-15 3.33D-09 XBig12= 4.71D-11 9.74D-07.
      3 vectors produced by pass  6 Test12= 2.52D-15 3.33D-09 XBig12= 1.70D-14 2.35D-08.
 InvSVY:  IOpt=1 It=  1 EMax= 6.22D-15
 Solved reduced A of dimension   148 with    30 vectors.
 Isotropic polarizability for W=    0.000000       46.64 Bohr**3.
 End of Minotr F.D. properties file   721 does not exist.
 End of Minotr F.D. properties file   722 does not exist.
 End of Minotr F.D. properties file   788 does not exist.
 Calling FoFJK, ICntrl=    100127 FMM=F ISym2X=0 I1Cent= 0 IOpClX= 0 NMat=1 NMatS=1 NMatT=0.
 ***** Axes restored to original set *****
 -------------------------------------------------------------------
 Center     Atomic                   Forces (Hartrees/Bohr)
 Number     Number              X              Y              Z
 -------------------------------------------------------------------
      1        6          -0.016853398   -0.008758758   -0.007908475
      2        6           0.003836874    0.000645945    0.043718879
      3        6           0.003911169    0.003872425   -0.013968753
      4        1          -0.016071514    0.009214579   -0.042117833
      5        1          -0.001051701    0.010425905   -0.002212517
      6        1           0.018403733   -0.014637000    0.026168230
      7        1           0.005753195   -0.001485425   -0.004149933
      8        1           0.000837240   -0.000008993   -0.002459286
      9        1           0.001234401    0.000731322    0.002929688
 -------------------------------------------------------------------
 Cartesian Forces:  Max     0.043718879 RMS     0.015048863
 FormGI is forming the generalized inverse of G from B-inverse, IUseBI=4.

 GradGradGradGradGradGradGradGradGradGradGradGradGradGradGradGradGradGrad
 Berny optimization.
 Internal  Forces:  Max     0.028893300 RMS     0.006847718
 Search for a saddle point.
 Step number   4 out of a maximum of  100
 All quantities printed in internal units (Hartrees-Bohrs-Radians)
 Swapping is turned off.
 Second derivative matrix not updated -- analytic derivatives used.
 ITU=  0  0  0  0
     Eigenvalues ---   -0.06991  -0.01031  -0.00027   0.00578   0.01121
     Eigenvalues ---    0.01848   0.02188   0.02679   0.03160   0.04311
     Eigenvalues ---    0.07330   0.08500   0.10127   0.10242   0.10883
     Eigenvalues ---    0.34618   0.35481   0.36418   0.37319   0.50940
     Eigenvalues ---    0.62885
 Eigenvectors required to have negative eigenvalues:
                          R6        R9        R3        D12       D11
   1                    0.55419  -0.54360   0.24216   0.18337   0.17809
                          D4        A5        A6        D7        D3
   1                   -0.17753   0.16660   0.16262  -0.16013  -0.14053
 RFO step:  Lambda0=6.739271474D-04 Lambda=-4.40103922D-02.
 Linear search not attempted -- option 19 set.
 Maximum step size (   0.300) exceeded in Quadratic search.
    -- Step size scaled by   0.282
 Iteration  1 RMS(Cart)=  0.03656590 RMS(Int)=  0.00229522
 Iteration  2 RMS(Cart)=  0.00195325 RMS(Int)=  0.00093478
 Iteration  3 RMS(Cart)=  0.00000181 RMS(Int)=  0.00093478
 Iteration  4 RMS(Cart)=  0.00000000 RMS(Int)=  0.00093478
 Variable       Old X    -DE/DX   Delta X   Delta X   Delta X     New X
                                 (Linear)    (Quad)   (Total)
    R1        2.52507   0.00798   0.00000   0.00490   0.00468   2.52975
    R2        2.03538   0.00114   0.00000   0.00217   0.00249   2.03787
    R3        3.92465   0.00426   0.00000   0.05705   0.05469   3.97933
    R4        2.06242   0.00221   0.00000  -0.00013  -0.00013   2.06229
    R5        2.50660   0.00880   0.00000   0.01526   0.01526   2.52186
    R6        3.10037  -0.01882   0.00000  -0.20854  -0.20707   2.89330
    R7        2.04870   0.00244   0.00000   0.00105   0.00105   2.04975
    R8        2.04208   0.00265   0.00000   0.00201   0.00201   2.04409
    R9        3.12299  -0.02889   0.00000  -0.16406  -0.16282   2.96017
   R10        3.74925  -0.00461   0.00000  -0.00914  -0.00876   3.74049
    A1        2.15744  -0.00121   0.00000  -0.01459  -0.01569   2.14175
    A2        1.27898  -0.00429   0.00000  -0.03360  -0.03577   1.24322
    A3        2.12157   0.00094   0.00000   0.01639   0.01777   2.13934
    A4        1.96454   0.00162   0.00000   0.00640   0.00585   1.97039
    A5        2.56573   0.00557   0.00000   0.04043   0.04140   2.60713
    A6        2.68929  -0.00390   0.00000  -0.05002  -0.05015   2.63914
    A7        1.63928  -0.00010   0.00000   0.02752   0.02764   1.66692
    A8        1.93126   0.00449   0.00000   0.02295   0.02319   1.95445
    A9        2.13392   0.00073   0.00000   0.00295   0.00294   2.13686
   A10        2.10235  -0.00138   0.00000  -0.00473  -0.00474   2.09761
   A11        2.04168   0.00057   0.00000   0.00087   0.00085   2.04253
   A12        1.40015   0.01126   0.00000   0.08723   0.09017   1.49032
   A13        1.23420  -0.00001   0.00000  -0.02762  -0.02897   1.20523
   A14        1.27333   0.00535   0.00000   0.01952   0.01914   1.29247
    D1        2.71576   0.00711   0.00000   0.04689   0.04722   2.76298
    D2       -0.10860   0.00227   0.00000   0.02622   0.02657  -0.08203
    D3       -2.67871  -0.00292   0.00000  -0.02099  -0.02175  -2.70045
    D4        0.78012  -0.00777   0.00000  -0.04166  -0.04239   0.73773
    D5       -0.10464   0.00149   0.00000   0.01327   0.01305  -0.09159
    D6       -2.92900  -0.00335   0.00000  -0.00740  -0.00760  -2.93660
    D7       -0.83017   0.00509   0.00000   0.05365   0.05383  -0.77635
    D8       -2.97237   0.00676   0.00000   0.05126   0.05212  -2.92025
    D9        1.30315  -0.00304   0.00000  -0.02678  -0.02684   1.27631
   D10       -1.95166  -0.00378   0.00000  -0.03649  -0.03655  -1.98821
   D11       -2.17748   0.00157   0.00000  -0.00696  -0.00690  -2.18439
   D12        0.85090   0.00083   0.00000  -0.01667  -0.01661   0.83428
   D13       -1.03336   0.00124   0.00000   0.00026   0.00028  -1.03308
   D14        2.25445   0.00050   0.00000   0.00743   0.00643   2.26088
   D15        0.62386   0.00097   0.00000  -0.00358  -0.00274   0.62112
   D16        1.18619   0.00021   0.00000  -0.01088  -0.01220   1.17399
         Item               Value     Threshold  Converged?
 Maximum Force            0.028893     0.000450     NO 
 RMS     Force            0.006848     0.000300     NO 
 Maximum Displacement     0.151702     0.001800     NO 
 RMS     Displacement     0.037316     0.001200     NO 
 Predicted change in Energy=-1.297536D-02
 GradGradGradGradGradGradGradGradGradGradGradGradGradGradGradGradGradGrad

                          Input orientation:                          
 ---------------------------------------------------------------------
 Center     Atomic      Atomic             Coordinates (Angstroms)
 Number     Number       Type             X           Y           Z
 ---------------------------------------------------------------------
      1          6           0       -2.473376   -0.588473    1.195431
      2          6           0       -1.220752   -0.130007    1.308645
      3          6           0        0.074127   -0.173846    0.988813
      4          1           0       -1.464589    0.644802    2.606481
      5          1           0       -3.226503   -0.418427    1.948308
      6          1           0       -2.542033    1.431709    1.785705
      7          1           0       -2.751325   -1.369437    0.485632
      8          1           0        0.447228    0.159439    0.026393
      9          1           0        0.809743   -0.443161    1.734724
 ---------------------------------------------------------------------
                    Distance matrix (angstroms):
                    1          2          3          4          5
     1  C    0.000000
     2  C    1.338685   0.000000
     3  C    2.589282   1.334513   0.000000
     4  H    2.128305   1.531066   2.377957   0.000000
     5  H    1.078397   2.124945   3.445955   2.160553   0.000000
     6  H    2.105772   2.100554   3.171299   1.566456   1.979379
     7  H    1.091318   2.134523   3.108988   3.195442   1.808213
     8  H    3.233567   2.123701   1.084682   3.247688   4.186166
     9  H    3.330289   2.098217   1.081686   2.667622   4.041969
                    6          7          8          9
     6  H    0.000000
     7  H    3.095224   0.000000
     8  H    3.694527   3.574787   0.000000
     9  H    3.840851   3.885797   1.847414   0.000000
 Stoichiometry    C3H6
 Framework group  C1[X(C3H6)]
 Deg. of freedom    21
 Full point group                 C1      NOp   1
 Largest Abelian subgroup         C1      NOp   1
 Largest concise Abelian subgroup C1      NOp   1
                         Standard orientation:                         
 ---------------------------------------------------------------------
 Center     Atomic      Atomic             Coordinates (Angstroms)
 Number     Number       Type             X           Y           Z
 ---------------------------------------------------------------------
      1          6           0        1.219913   -0.312271   -0.024554
      2          6           0       -0.046384    0.121525   -0.004865
      3          6           0       -1.361087   -0.107379    0.004344
      4          1           0        0.282760    1.555112   -0.429899
      5          1           0        2.041241    0.301892   -0.357965
      6          1           0        1.171984    1.598584    0.858967
      7          1           0        1.479617   -1.370299    0.039514
      8          1           0       -1.879983   -0.483389    0.879502
      9          1           0       -1.970271    0.186851   -0.839674
 ---------------------------------------------------------------------
 Rotational constants (GHZ):          45.1679606           8.7082465           7.8830530
 Standard basis: 6-31G(d,p) (6D, 7F)
 There are    75 symmetry adapted cartesian basis functions of A   symmetry.
 There are    75 symmetry adapted basis functions of A   symmetry.
    75 basis functions,   126 primitive gaussians,    75 cartesian basis functions
    12 alpha electrons       12 beta electrons
       nuclear repulsion energy        69.3181357466 Hartrees.
 NAtoms=    9 NActive=    9 NUniq=    9 SFac= 1.00D+00 NAtFMM=   60 NAOKFM=F Big=F
 Integral buffers will be    131072 words long.
 Raffenetti 2 integral format.
 Two-electron integral symmetry is turned on.
 One-electron integrals computed using PRISM.
 NBasis=    75 RedAO= T EigKep=  2.59D-03  NBF=    75
 NBsUse=    75 1.00D-06 EigRej= -1.00D+00 NBFU=    75
 Initial guess from the checkpoint file:  "/scratch/brown/zhao922/pyGSM/new-benchmarking/R1-3/TS-folder/Gau-114648.chk"
 B after Tr=    -0.000000    0.000000   -0.000000
         Rot=    0.999978    0.006627   -0.000043   -0.000947 Ang=   0.77 deg.
 ExpMin= 1.61D-01 ExpMax= 3.05D+03 ExpMxC= 4.57D+02 IAcc=3 IRadAn=         5 AccDes= 0.00D+00
 Harris functional with IExCor=  402 and IRadAn=       5 diagonalized for initial guess.
 HarFok:  IExCor=  402 AccDes= 0.00D+00 IRadAn=         5 IDoV= 1 UseB2=F ITyADJ=14
 ICtDFT=  3500011 ScaDFX=  1.000000  1.000000  1.000000  1.000000
 FoFCou: FMM=F IPFlag=           0 FMFlag=      100000 FMFlg1=           0
         NFxFlg=           0 DoJE=T BraDBF=F KetDBF=T FulRan=T
         wScrn=  0.000000 ICntrl=       500 IOpCl=  0 I1Cent=   200000004 NGrid=           0
         NMat0=    1 NMatS0=      1 NMatT0=    0 NMatD0=    1 NMtDS0=    0 NMtDT0=    0
 Petite list used in FoFCou.
 Keep R1 ints in memory in canonical form, NReq=25608259.
 Requested convergence on RMS density matrix=1.00D-08 within 128 cycles.
 Requested convergence on MAX density matrix=1.00D-06.
 Requested convergence on             energy=1.00D-06.
 No special actions if energy rises.
 Integral accuracy reduced to 1.0D-05 until final iterations.
 Initial convergence to 1.0D-05 achieved.  Increase integral accuracy.
 SCF Done:  E(RB3LYP) =  -117.695778420     A.U. after   13 cycles
            NFock= 13  Conv=0.81D-08     -V/T= 2.0109
 DoSCS=F DFT=T ScalE2(SS,OS)=  1.000000  1.000000
 Range of M.O.s used for correlation:     1    75
 NBasis=    75 NAE=    12 NBE=    12 NFC=     0 NFV=     0
 NROrb=     75 NOA=    12 NOB=    12 NVA=    63 NVB=    63
 Symmetrizing basis deriv contribution to polar:
 IMax=3 JMax=2 DiffMx= 0.00D+00
 G2DrvN: will do    10 centers at a time, making    1 passes.
 Calling FoFCou, ICntrl=  3107 FMM=F I1Cent=   0 AccDes= 0.00D+00.
 End of G2Drv F.D. properties file   721 does not exist.
 End of G2Drv F.D. properties file   722 does not exist.
 End of G2Drv F.D. properties file   788 does not exist.
          IDoAtm=111111111
          Differentiating once with respect to electric field.
                with respect to dipole field.
          Differentiating once with respect to nuclear coordinates.
 Keep R1 ints in memory in canonical form, NReq=25532604.
          There are    30 degrees of freedom in the 1st order CPHF.  IDoFFX=6 NUNeed=     3.
     27 vectors produced by pass  0 Test12= 2.52D-15 3.33D-09 XBig12= 1.79D+02 1.10D+01.
 AX will form    27 AO Fock derivatives at one time.
     27 vectors produced by pass  1 Test12= 2.52D-15 3.33D-09 XBig12= 1.88D+01 1.13D+00.
     27 vectors produced by pass  2 Test12= 2.52D-15 3.33D-09 XBig12= 1.66D-01 9.02D-02.
     27 vectors produced by pass  3 Test12= 2.52D-15 3.33D-09 XBig12= 2.48D-04 2.66D-03.
     27 vectors produced by pass  4 Test12= 2.52D-15 3.33D-09 XBig12= 1.35D-07 7.95D-05.
     11 vectors produced by pass  5 Test12= 2.52D-15 3.33D-09 XBig12= 5.50D-11 1.03D-06.
      3 vectors produced by pass  6 Test12= 2.52D-15 3.33D-09 XBig12= 1.87D-14 2.07D-08.
 InvSVY:  IOpt=1 It=  1 EMax= 8.88D-15
 Solved reduced A of dimension   149 with    30 vectors.
 Isotropic polarizability for W=    0.000000       46.38 Bohr**3.
 End of Minotr F.D. properties file   721 does not exist.
 End of Minotr F.D. properties file   722 does not exist.
 End of Minotr F.D. properties file   788 does not exist.
 Calling FoFJK, ICntrl=    100127 FMM=F ISym2X=0 I1Cent= 0 IOpClX= 0 NMat=1 NMatS=1 NMatT=0.
 ***** Axes restored to original set *****
 -------------------------------------------------------------------
 Center     Atomic                   Forces (Hartrees/Bohr)
 Number     Number              X              Y              Z
 -------------------------------------------------------------------
      1        6          -0.015594725   -0.009497225   -0.008736183
      2        6           0.002641775    0.002223216    0.045272956
      3        6           0.002700154    0.002941913   -0.013264321
      4        1          -0.015618231    0.008708995   -0.042312112
      5        1          -0.000879432    0.009803962   -0.002306680
      6        1           0.018766271   -0.013908664    0.024452813
      7        1           0.006404277   -0.001235478   -0.003551139
      8        1           0.000550552   -0.000688477   -0.002059947
      9        1           0.001029361    0.001651757    0.002504613
 -------------------------------------------------------------------
 Cartesian Forces:  Max     0.045272956 RMS     0.015017599
 FormGI is forming the generalized inverse of G from B-inverse, IUseBI=4.

 GradGradGradGradGradGradGradGradGradGradGradGradGradGradGradGradGradGrad
 Berny optimization.
 Internal  Forces:  Max     0.027834336 RMS     0.006818311
 Search for a saddle point.
 Step number   5 out of a maximum of  100
 All quantities printed in internal units (Hartrees-Bohrs-Radians)
 Swapping is turned off.
 Second derivative matrix not updated -- analytic derivatives used.
 ITU=  0  0  0  0  0
     Eigenvalues ---   -0.07126  -0.00455   0.00260   0.00824   0.01076
     Eigenvalues ---    0.01798   0.02200   0.02631   0.03150   0.04184
     Eigenvalues ---    0.07153   0.08806   0.10183   0.10442   0.11087
     Eigenvalues ---    0.34632   0.35351   0.36323   0.37098   0.50222
     Eigenvalues ---    0.60824
 Eigenvectors required to have negative eigenvalues:
                          R9        R6        R3        D4        D12
   1                   -0.57088   0.54108   0.22092  -0.17980   0.17788
                          D11       A5        A6        D7        D3
   1                    0.17342   0.16895   0.16725  -0.15612  -0.14552
 RFO step:  Lambda0=5.456244844D-04 Lambda=-4.08405148D-02.
 Linear search not attempted -- option 19 set.
 Maximum step size (   0.300) exceeded in Quadratic search.
    -- Step size scaled by   0.258
 Iteration  1 RMS(Cart)=  0.03905177 RMS(Int)=  0.00254204
 Iteration  2 RMS(Cart)=  0.00197744 RMS(Int)=  0.00106566
 Iteration  3 RMS(Cart)=  0.00000219 RMS(Int)=  0.00106565
 Iteration  4 RMS(Cart)=  0.00000000 RMS(Int)=  0.00106565
 Variable       Old X    -DE/DX   Delta X   Delta X   Delta X     New X
                                 (Linear)    (Quad)   (Total)
    R1        2.52975   0.00604   0.00000   0.00296   0.00286   2.53261
    R2        2.03787   0.00101   0.00000   0.00269   0.00312   2.04100
    R3        3.97933   0.00442   0.00000   0.08931   0.08633   4.06566
    R4        2.06229   0.00156   0.00000  -0.00124  -0.00124   2.06105
    R5        2.52186   0.00710   0.00000   0.01572   0.01572   2.53758
[...]
 Vib (V=0)    2  0.111552D+01          0.047479          0.109325
 Vib (V=0)    3  0.106430D+01          0.027064          0.062317
 Electronic      0.100000D+01          0.000000          0.000000
 Translational   0.107166D+08          7.030056         16.187301
 Rotational      0.151243D+05          4.179676          9.624061
 ***** Axes restored to original set *****
 -------------------------------------------------------------------
 Center     Atomic                   Forces (Hartrees/Bohr)
 Number     Number              X              Y              Z
 -------------------------------------------------------------------
      1        6          -0.000066319   -0.000001718   -0.000043677
      2        6           0.000077538   -0.000044726   -0.000029445
      3        6           0.000009340    0.000020607    0.000008855
      4        1           0.000007307    0.000047266    0.000059532
      5        1          -0.000021299   -0.000010360    0.000013339
      6        1          -0.000003106   -0.000003225   -0.000008255
      7        1          -0.000003996   -0.000002508    0.000000377
      8        1          -0.000001059   -0.000008883    0.000000257
      9        1           0.000001592    0.000003546   -0.000000983
 -------------------------------------------------------------------
 Cartesian Forces:  Max     0.000077538 RMS     0.000028903
 FormGI is forming the generalized inverse of G from B-inverse, IUseBI=4.

 GradGradGradGradGradGradGradGradGradGradGradGradGradGradGradGradGradGrad
 Berny optimization.
 Internal  Forces:  Max     0.000074734 RMS     0.000017478
 Search for a saddle point.
 Step number   1 out of a maximum of    2
 All quantities printed in internal units (Hartrees-Bohrs-Radians)
 Swapping is turned off.
 Second derivative matrix not updated -- analytic derivatives used.
 ITU=  0
     Eigenvalues ---   -0.05204   0.00471   0.01198   0.01364   0.01571
     Eigenvalues ---    0.02134   0.02555   0.02868   0.03437   0.05698
     Eigenvalues ---    0.09225   0.10450   0.11417   0.12469   0.15316
     Eigenvalues ---    0.34139   0.35559   0.35995   0.36576   0.40755
     Eigenvalues ---    0.56119
 Eigenvectors required to have negative eigenvalues:
                          R9        R3        R6        A5        A12
   1                    0.61914  -0.34643  -0.25354  -0.23614  -0.22171
                          D1        D2        D9        D11       D10
   1                   -0.20099  -0.19477  -0.19134  -0.19026  -0.15675
 Angle between quadratic step and forces=  71.04 degrees.
 Linear search not attempted -- option 19 set.
 Iteration  1 RMS(Cart)=  0.00040079 RMS(Int)=  0.00000026
 Iteration  2 RMS(Cart)=  0.00000020 RMS(Int)=  0.00000011
 Variable       Old X    -DE/DX   Delta X   Delta X   Delta X     New X
                                 (Linear)    (Quad)   (Total)
    R1        2.59766   0.00007   0.00000   0.00024   0.00024   2.59790
    R2        2.04602   0.00002   0.00000   0.00003   0.00003   2.04605
    R3        3.87182   0.00001   0.00000  -0.00180  -0.00180   3.87002
    R4        2.05947   0.00000   0.00000   0.00002   0.00002   2.05949
    R5        2.56193   0.00001   0.00000  -0.00013  -0.00013   2.56180
    R6        2.24791   0.00005   0.00000   0.00081   0.00081   2.24873
    R7        2.05296  -0.00000   0.00000   0.00000   0.00000   2.05297
    R8        2.04925   0.00000   0.00000  -0.00001  -0.00001   2.04924
    R9        2.37044   0.00001   0.00000  -0.00147  -0.00147   2.36896
   R10        3.51580   0.00001   0.00000  -0.00042  -0.00042   3.51538
    A1        2.08464  -0.00000   0.00000   0.00011   0.00011   2.08475
    A2        1.15645   0.00000   0.00000   0.00002   0.00002   1.15647
    A3        2.13029  -0.00000   0.00000  -0.00005  -0.00005   2.13024
    A4        2.05412   0.00000   0.00000  -0.00020  -0.00020   2.05392
    A5        2.69534  -0.00000   0.00000   0.00001   0.00001   2.69535
    A6        2.34143   0.00002   0.00000   0.00048   0.00048   2.34191
    A7        1.79863  -0.00002   0.00000  -0.00038  -0.00038   1.79825
    A8        2.11634  -0.00001   0.00000  -0.00027  -0.00027   2.11607
    A9        2.11893  -0.00000   0.00000  -0.00001  -0.00001   2.11892
   A10        2.11349   0.00000   0.00000   0.00001   0.00001   2.11350
   A11        2.04387  -0.00000   0.00000   0.00003   0.00003   2.04390
   A12        1.85308  -0.00001   0.00000  -0.00052  -0.00052   1.85256
   A13        1.22792   0.00003   0.00000   0.00093   0.00093   1.22885
   A14        1.52907   0.00002   0.00000   0.00064   0.00064   1.52972
    D1       -3.12253  -0.00000   0.00000  -0.00019  -0.00019  -3.12272
    D2       -0.23655  -0.00001   0.00000  -0.00103  -0.00103  -0.23758
    D3       -2.45916   0.00000   0.00000   0.00067   0.00067  -2.45848
    D4        0.42682  -0.00000   0.00000  -0.00017  -0.00017   0.42665
    D5        0.20315   0.00000   0.00000   0.00068   0.00068   0.20384
    D6        3.08913  -0.00000   0.00000  -0.00016  -0.00016   3.08897
    D7       -0.41816  -0.00000   0.00000  -0.00016  -0.00016  -0.41832
    D8       -2.42704  -0.00000   0.00000  -0.00009  -0.00009  -2.42713
    D9        0.50297  -0.00001   0.00000  -0.00073  -0.00073   0.50224
   D10       -2.76822  -0.00001   0.00000  -0.00043  -0.00043  -2.76865
   D11       -2.34635  -0.00001   0.00000   0.00022   0.00022  -2.34613
   D12        0.66564  -0.00000   0.00000   0.00052   0.00052   0.66616
   D13       -0.70034   0.00001   0.00000   0.00030   0.00030  -0.70004
   D14        2.22742   0.00001   0.00000  -0.00026  -0.00026   2.22716
   D15        0.46369   0.00001   0.00000  -0.00002  -0.00002   0.46366
   D16        0.93852   0.00001   0.00000   0.00038   0.00038   0.93890
         Item               Value     Threshold  Converged?
 Maximum Force            0.000075     0.000450     YES
 RMS     Force            0.000017     0.000300     YES
 Maximum Displacement     0.001188     0.001800     YES
 RMS     Displacement     0.000401     0.001200     YES
 Predicted change in Energy=-6.175950D-08
 Optimization completed.
    -- Stationary point found.
                           ----------------------------
                           !   Optimized Parameters   !
                           ! (Angstroms and Degrees)  !
 --------------------------                            --------------------------
 ! Name  Definition              Value          Derivative Info.                !
 --------------------------------------------------------------------------------
 ! R1    R(1,2)                  1.3746         -DE/DX =    0.0001              !
 ! R2    R(1,5)                  1.0827         -DE/DX =    0.0                 !
 ! R3    R(1,6)                  2.0489         -DE/DX =    0.0                 !
 ! R4    R(1,7)                  1.0898         -DE/DX =    0.0                 !
 ! R5    R(2,3)                  1.3557         -DE/DX =    0.0                 !
 ! R6    R(2,4)                  1.1895         -DE/DX =    0.0001              !
 ! R7    R(3,8)                  1.0864         -DE/DX =    0.0                 !
 ! R8    R(3,9)                  1.0844         -DE/DX =    0.0                 !
 ! R9    R(4,6)                  1.2544         -DE/DX =    0.0                 !
 ! R10   R(5,6)                  1.8605         -DE/DX =    0.0                 !
 ! A1    A(2,1,5)              119.4411         -DE/DX =    0.0                 !
 ! A2    A(2,1,6)               66.2599         -DE/DX =    0.0                 !
 ! A3    A(2,1,7)              122.0564         -DE/DX =    0.0                 !
 ! A4    A(5,1,7)              117.6925         -DE/DX =    0.0                 !
 ! A5    A(6,1,7)              154.4316         -DE/DX =    0.0                 !
 ! A6    A(1,2,3)              134.1541         -DE/DX =    0.0                 !
 ! A7    A(1,2,4)              103.0538         -DE/DX =    0.0                 !
 ! A8    A(3,2,4)              121.2574         -DE/DX =    0.0                 !
 ! A9    A(2,3,8)              121.4059         -DE/DX =    0.0                 !
 ! A10   A(2,3,9)              121.0938         -DE/DX =    0.0                 !
 ! A11   A(8,3,9)              117.1051         -DE/DX =    0.0                 !
 ! A12   A(2,4,6)              106.1737         -DE/DX =    0.0                 !
 ! A13   A(1,6,4)               70.3545         -DE/DX =    0.0                 !
 ! A14   A(4,6,5)               87.6095         -DE/DX =    0.0                 !
 ! D1    D(5,1,2,3)           -178.9077         -DE/DX =    0.0                 !
 ! D2    D(5,1,2,4)            -13.5532         -DE/DX =    0.0                 !
 ! D3    D(6,1,2,3)           -140.8993         -DE/DX =    0.0                 !
 ! D4    D(6,1,2,4)             24.4552         -DE/DX =    0.0                 !
 ! D5    D(7,1,2,3)             11.6398         -DE/DX =    0.0                 !
 ! D6    D(7,1,2,4)            176.9943         -DE/DX =    0.0                 !
 ! D7    D(2,1,6,4)            -23.9586         -DE/DX =    0.0                 !
 ! D8    D(7,1,6,4)           -139.0591         -DE/DX =    0.0                 !
 ! D9    D(1,2,3,8)             28.8181         -DE/DX =    0.0                 !
 ! D10   D(1,2,3,9)           -158.6073         -DE/DX =    0.0                 !
 ! D11   D(4,2,3,8)           -134.436          -DE/DX =    0.0                 !
 ! D12   D(4,2,3,9)             38.1386         -DE/DX =    0.0                 !
 ! D13   D(1,2,4,6)            -40.1265         -DE/DX =    0.0                 !
 ! D14   D(3,2,4,6)            127.6219         -DE/DX =    0.0                 !
 ! D15   D(2,4,6,1)             26.5673         -DE/DX =    0.0                 !
 ! D16   D(2,4,6,5)             53.7733         -DE/DX =    0.0                 !
 --------------------------------------------------------------------------------
 GradGradGradGradGradGradGradGradGradGradGradGradGradGradGradGradGradGrad


 ----------------------------------------------------------------------

 Electric dipole moment (input orientation):
 (Debye = 10**-18 statcoulomb cm , SI units = C m)
                  (au)            (Debye)         (10**-30 SI)
   Tot        0.399430D+00      0.101525D+01      0.338651D+01
   x         -0.458370D-01     -0.116506D+00     -0.388622D+00
   y         -0.365331D+00     -0.928578D+00     -0.309740D+01
   z         -0.154844D+00     -0.393575D+00     -0.131283D+01

 Dipole polarizability, Alpha (input orientation).
 (esu units = cm**3 , SI units = C**2 m**2 J**-1)
 Alpha(0;0):
               (au)            (10**-24 esu)      (10**-40 SI)
   iso        0.442635D+02      0.655917D+01      0.729806D+01
   aniso      0.447529D+02      0.663169D+01      0.737875D+01
   xx         0.641801D+02      0.951051D+01      0.105819D+02
   yx        -0.943674D+01     -0.139838D+01     -0.155591D+01
   yy         0.364727D+02      0.540470D+01      0.601354D+01
   zx        -0.793423D+01     -0.117573D+01     -0.130818D+01
   zy         0.146082D+02      0.216471D+01      0.240857D+01
   zz         0.321376D+02      0.476230D+01      0.529878D+01

 ----------------------------------------------------------------------

 Dipole orientation:
     6         -4.75988836          2.08467658          0.63811699
     6         -2.59341473          2.64658937         -0.68039765
     6         -0.13051946          1.98684896         -0.43067499
     1         -3.37782370          3.52253621         -2.59626297
     1         -6.54830819          2.85374396          0.00861148
     1         -5.25961208          2.21320122         -3.19916620
     1         -4.71135286          1.15499260          2.47516722
     1          0.41721063          0.19453650          0.40733667
     1          1.35895751          3.12330633         -1.26093841

 Electric dipole moment (dipole orientation):
 (Debye = 10**-18 statcoulomb cm , SI units = C m)
                  (au)            (Debye)         (10**-30 SI)
   Tot        0.399430D+00      0.101525D+01      0.338651D+01
   x          0.000000D+00      0.000000D+00      0.000000D+00
   y          0.000000D+00      0.000000D+00      0.000000D+00
   z          0.399430D+00      0.101525D+01      0.338651D+01

 Dipole polarizability, Alpha (dipole orientation).
 (esu units = cm**3 , SI units = C**2 m**2 J**-1)
 Alpha(0;0):
               (au)            (10**-24 esu)      (10**-40 SI)
   iso        0.442635D+02      0.655917D+01      0.729806D+01
   aniso      0.447529D+02      0.663169D+01      0.737875D+01
   xx         0.670709D+02      0.993889D+01      0.110585D+02
   yx        -0.116688D+01     -0.172914D+00     -0.192393D+00
   yy         0.218611D+02      0.323948D+01      0.360440D+01
   zx         0.100288D+02      0.148611D+01      0.165352D+01
   zy        -0.738660D+01     -0.109458D+01     -0.121789D+01
   zz         0.438584D+02      0.649915D+01      0.723128D+01

 ----------------------------------------------------------------------
 1\1\GINC-BROWN-A120\Freq\RB3LYP\6-31G(d,p)\C3H6\ZHAO922\17-Jul-2020\0\
 \#N Geom=AllCheck Guess=TCheck SCRF=Check GenChk RB3LYP/6-31G(d,p) Fre
 q\\pp_3_1 TS\\0,1\C,-2.4502308236,-0.5564572468,1.1671314981\C,-1.2121
 028094,-0.1231028783,1.5780198323\C,0.0372656144,-0.2038937939,1.05791
 34055\H,-1.471851337,0.6514820537,2.4426392102\H,-3.3186306946,-0.3418
 238393,1.7771036268\H,-2.4739955789,1.2937835353,2.0468743795\H,-2.573
 5590017,-1.2521481522,0.3373584397\H,0.201733581,-0.2547352875,-0.0147
 418246\H,0.9138890497,-0.100505391,1.6878324324\\Version=ES64L-G16RevB
 .01\State=1-A\HF=-117.7348495\RMSD=3.320e-09\RMSF=2.890e-05\ZeroPoint=
 0.0682923\Thermal=0.0723554\Dipole=-0.045837,-0.3653307,-0.1548444\Dip
 oleDeriv=0.2558961,-0.0789683,-0.1453584,-0.0514219,0.0968284,0.255979
 3,-0.0317796,0.2258272,0.09982,0.113793,-0.0897955,-0.1272288,-0.23269
 78,-0.0178106,0.1657982,-0.2780518,-0.1576086,-0.1016597,-0.1384631,0.
 0818895,0.1031221,-0.0512248,-0.2970899,0.071808,0.2015868,0.1210651,0
 .1581911,0.0496117,-0.062978,0.044541,0.064756,0.198576,-0.0518719,-0.
 1646826,0.0132677,0.0607293,0.0695877,-0.0548641,0.0063175,0.0610076,0
 .0586645,-0.112837,0.040061,-0.0376303,0.0293208,-0.4099463,0.2264431,
 0.1782108,0.3117286,-0.3878411,-0.1854214,0.289828,-0.0553311,-0.19365
 65,0.0612561,0.0026894,0.0038542,-0.0700852,0.0498455,-0.1015269,-0.01
 8973,-0.0801929,0.0110054,0.0138618,-0.0233075,-0.0217608,0.0331404,0.
 1449359,-0.0433197,0.0215738,-0.000477,-0.0563006,-0.015597,-0.0011084
 ,-0.0416976,-0.0652029,0.1538913,0.0013914,-0.0595626,-0.0289201,-0.00
 74498\Polar=64.1801211,-9.4367397,36.4727177,-7.9342313,14.6082,32.137
 6256\Quadrupole=1.2875098,-1.9106946,0.6231848,1.5392247,0.3278761,0.3
 896819\PG=C01 [X(C3H6)]\NImag=1\\0.69699650,0.12182414,0.29702877,-0.0
 2621221,0.25166699,0.48149435,-0.34265650,-0.13308210,-0.07643836,0.82
 774842,-0.11263629,-0.10051914,-0.04945161,0.09337857,0.20398959,-0.08
 931782,-0.05857190,-0.10551165,-0.07010365,0.10174686,0.30452079,-0.04
 734633,0.00815366,0.01077298,-0.39499789,0.00730497,0.12830928,0.75028
 593,-0.00301910,0.00259065,0.00311356,-0.00633705,-0.04347940,-0.00199
 270,0.01649142,0.09136298,0.00293789,-0.00522525,0.01227513,0.12888230
 ,-0.00680377,-0.14250751,-0.04608413,0.04714404,0.62951438,0.00589335,
 -0.01979515,-0.01874980,-0.02865717,-0.02038198,-0.02513968,-0.0101397
 7,0.01246855,0.02372154,0.02431886,-0.01516013,-0.00566370,-0.02249859
 ,0.00615505,-0.03739927,-0.01592863,0.00629872,-0.00499671,-0.00908391
 ,0.03553440,0.04851024,0.00209066,-0.01761681,-0.01998045,0.00261840,-
 0.05426716,-0.09591049,0.00690531,-0.00738549,-0.01123162,0.00103713,0
 .07126345,0.13919205,-0.23722877,0.03788082,0.13687867,-0.02527695,0.0
 0464461,0.01443803,-0.00053065,-0.00154378,-0.00352251,-0.00230117,0.0
 0374518,0.00116134,0.25611549,0.02938397,-0.03045803,-0.04559422,0.009
 58635,0.00717390,0.01371501,-0.00386334,0.00260170,-0.00431777,0.00618
 260,-0.01027068,0.00184254,-0.04334249,0.04071725,0.15055045,-0.045618
 31,-0.15083792,-0.02420806,-0.01144919,0.00114793,0.00261065,-0.001483
 30,0.00345653,-0.00644524,0.00676422,0.00130284,-0.14580823,0.05015045
 ,0.14757315,-0.00771044,-0.00358924,-0.00784799,-0.01714804,0.04622428
 ,0.04514684,-0.00016006,-0.00014928,-0.00670770,0.01226970,-0.03001661
 ,-0.01360708,0.00332102,-0.00987961,0.00618467,0.01106350,-0.00314977,
 -0.00411736,0.00532534,0.01911129,-0.02621002,-0.01732934,-0.00376615,
 0.00453598,0.00514115,-0.00531422,0.00114341,0.01116537,0.00034394,-0.
 00986301,0.00463093,-0.00485533,0.02765054,-0.01628712,0.01546578,-0.0
 0350279,0.01672937,0.01931424,0.02536837,-0.00141783,-0.00363868,0.001
 44475,0.01875003,-0.02062854,-0.01476506,0.00118604,-0.00747584,0.0022
 9623,-0.01553865,-0.00484568,-0.00701919,-0.06567867,-0.01560060,-0.02
 122182,0.00642771,-0.01654296,-0.01562128,0.00090221,0.00058771,-0.001
 34856,-0.00062403,-0.00507161,-0.00253259,0.00663849,0.01270240,0.0178
 6497,-0.00241663,-0.00099435,-0.00168850,0.05486384,-0.01661134,-0.162
 34464,-0.14178614,-0.00347364,-0.01024880,-0.02034540,0.00226905,-0.00
 072173,0.00431722,-0.01064596,0.01072270,-0.00330361,-0.00145845,-0.00
 050296,-0.00436718,0.00556891,0.00521285,0.00346754,0.02536946,0.15728
 446,-0.02405079,-0.13911935,-0.21445175,0.00771458,0.00135454,0.008792
 14,-0.00144338,0.00110296,-0.00253572,0.00655594,-0.01130420,0.0009670
 5,-0.00515501,-0.00816796,-0.00515284,-0.00744969,-0.00431208,-0.00415
 192,0.02389973,0.16098905,0.21708512,0.00057592,0.00212398,0.00024019,
 -0.00420125,0.00105363,0.02784339,-0.05844986,0.00230892,0.03899551,-0
 .00261657,-0.00015174,0.00224961,-0.00002477,0.00043540,-0.00073017,0.
 00097182,-0.00108751,-0.00064257,-0.00009114,-0.00106849,0.00011887,0.
 05759416,-0.01213534,-0.00072399,-0.00006134,0.02052954,0.01492247,0.0
 1233613,-0.00625084,-0.02335404,-0.01010547,0.00992270,-0.00916692,-0.
 00756016,0.00032764,-0.00163865,0.00016222,-0.00841691,0.00127652,-0.0
 0856249,-0.00102464,0.00064747,-0.00043618,-0.00276792,0.01465865,-0.0
 0052183,-0.00040431,0.00113417,0.00151290,-0.00308276,-0.00806745,0.03
 895060,-0.01622743,-0.33420883,-0.00028266,0.00202671,0.00024176,0.000
 29226,-0.00037845,0.00050181,0.00011259,0.00035535,0.00106895,0.000478
 06,0.00089751,-0.00063824,-0.04510175,0.01701395,0.35195592,-0.0028450
 5,0.00208450,0.00257833,-0.02123832,-0.00304483,-0.01555511,-0.2395635
 7,-0.02080739,-0.13687434,0.00185680,-0.00133328,0.00007721,-0.0007127
 0,-0.00120528,-0.00001902,-0.00019087,-0.00028789,-0.00109077,-0.00002
 177,0.00005046,-0.00019024,0.00624170,-0.00018424,0.00455984,0.2564737
 8,0.01150385,0.00420744,-0.00071399,-0.00586801,-0.00822934,-0.0136300
 3,-0.02663750,-0.02853943,-0.02106623,-0.00797094,0.00712092,0.0058618
 6,-0.00059746,0.00224047,0.00121017,0.00511377,0.00037109,0.00690366,0
 .00057460,-0.00004935,-0.00010680,-0.00084627,0.00337847,-0.00020057,0
 .02472796,0.01949972,0.00081077,-0.00057684,-0.00061909,0.01329251,0.0
 0263884,0.01216788,-0.13860347,-0.02063295,-0.15620713,0.00055274,-0.0
 0061052,0.00018392,0.00052941,0.00022622,-0.00028772,-0.00029299,-0.00
 013103,-0.00073934,0.00017000,0.00013102,0.00008615,-0.02297307,-0.002
 78666,-0.01198809,0.14651410,0.02174192,0.15740341\\0.00006632,0.00000
 172,0.00004368,-0.00007754,0.00004473,0.00002944,-0.00000934,-0.000020
 61,-0.00000885,-0.00000731,-0.00004727,-0.00005953,0.00002130,0.000010
 36,-0.00001334,0.00000311,0.00000323,0.00000825,0.00000400,0.00000251,
 -0.00000038,0.00000106,0.00000888,-0.00000026,-0.00000159,-0.00000355,
 0.00000098\\\@


 The most important thing in communication is to hear what isn't being said.
 -- Peter F. Drucker
 Job cpu time:       0 days  0 hours  1 minutes 57.4 seconds.
 Elapsed time:       0 days  0 hours  0 minutes  5.5 seconds.
 File lengths (MBytes):  RWF=     10 Int=      0 D2E=      0 Chk=      2 Scr=      1
 Normal termination of Gaussian 16 at Fri Jul 17 17:32:10 2020.
