 Entering Gaussian System, Link 0=g16
 Initial command:
 /apps/cent7/gaussian/g16-B.01/g16-haswell/g16/l1.exe "/scratch/brown/zhao922/pyGSM/new-benchmarking/R1-3/TS-folder/Gau-119426.inp" -scrdir="/scratch/brown/zhao922/pyGSM/new-benchmarking/R1-3/TS-folder/"
 Entering Link 1 = /apps/cent7/gaussian/g16-B.01/g16-haswell/g16/l1.exe PID=    119427.
  
 Copyright (c) 1988-2017, Gaussian, Inc.  All Rights Reserved.
  
 This is part of the Gaussian(R) 16 program.  It is based on
 the Gaussian(R) 09 system (copyright 2009, Gaussian, Inc.),
 the Gaussian(R) 03 system (copyright 2003, Gaussian, Inc.),
 the Gaussian(R) 98 system (copyright 1998, Gaussian, Inc.),
 the Gaussian(R) 94 system (copyright 1995, Gaussian, Inc.),
 the Gaussian 92(TM) system (copyright 1992, Gaussian, Inc.),
 the Gaussian 90(TM) system (copyright 1990, Gaussian, Inc.),
 the Gaussian 88(TM) system (copyright 1988, Gaussian, Inc.),
 the Gaussian 86(TM) system (copyright 1986, Carnegie Mellon
 University), and the Gaussian 82(TM) system (copyright 1983,
 Carnegie Mellon University). Gaussian is a federally registered
 trademark of Gaussian, Inc.
  
 This software contains proprietary and confidential information,
 including trade secrets, belonging to Gaussian, Inc.
  
 This software is provided under written license and may be
 used, copied, transmitted, or stored only in accord with that
 written license.
  
 The following legend is applicable only to US Government
 contracts under FAR:
  
                    RESTRICTED RIGHTS LEGEND
  
 Use, reproduction and disclosure by the US Government is
 subject to restrictions as set forth in subparagraphs (a)
 and (c) of the Commercial Computer Software - Restricted
 Rights clause in FAR 52.227-19.
  
 Gaussian, Inc.
 340 Quinnipiac St., Bldg. 40, Wallingford CT 06492
  
  
 ---------------------------------------------------------------
 Warning -- This program may not be used in any manner that
 competes with the business of Gaussian, Inc. or will provide
 assistance to any competitor of Gaussian, Inc.  The licensee
 of this program is prohibited from giving any competitor of
 Gaussian, Inc. access to this program.  By using this program,
 the user acknowledges that Gaussian, Inc. is engaged in the
 business of creating and licensing software in the field of
 computational chemistry and represents and warrants to the
 licensee that it is not a competitor of Gaussian, Inc. and that
 it will not use this program in any manner prohibited above.
 ---------------------------------------------------------------
  

 Cite this work as:
 Gaussian 16, Revision B.01,
 M. J. Frisch, G. W. Trucks, H. B. Schlegel, G. E. Scuseria, 
 M. A. Robb, J. R. Cheeseman, G. Scalmani, V. Barone, 
 G. A. Petersson, H. Nakatsuji, X. Li, M. Caricato, A. V. Marenich, 
 J. Bloino, B. G. Janesko, R. Gomperts, B. Mennucci, H. P. Hratchian, 
 J. V. Ortiz, A. F. Izmaylov, J. L. Sonnenberg, D. Williams-Young, 
 F. Ding, F. Lipparini, F. Egidi, J. Goings, B. Peng, A. Petrone, 
 T. Henderson, D. Ranasinghe, V. G. Zakrzewski, J. Gao, N. Rega, 
 G. Zheng, W. Liang, M. Hada, M. Ehara, K. Toyota, R. Fukuda, 
 J. Hasegawa, M. Ishida, T. Nakajima, Y. Honda, O. Kitao, H. Nakai, 
 T. Vreven, K. Throssell, J. A. Montgomery, Jr., J. E. Peralta, 
 F. Ogliaro, M. J. Bearpark, J. J. Heyd, E. N. Brothers, K. N. Kudin, 
 V. N. Staroverov, T. A. Keith, R. Kobayashi, J. Normand, 
 K. Raghavachari, A. P. Rendell, J. C. Burant, S. S. Iyengar, 
 J. Tomasi, M. Cossi, J. M. Millam, M. Klene, C. Adamo, R. Cammi, 
 J. W. Ochterski, R. L. Martin, K. Morokuma, O. Farkas, 
 J. B. Foresman, and D. J. Fox, Gaussian, Inc., Wallingford CT, 2016.
 
 ******************************************
 Gaussian 16:  ES64L-G16RevB.01 20-Dec-2017
                17-Jul-2020 
 ******************************************
 %NProcShared=24
 Will use up to   24 processors via shared memory.
 %Mem=60GB
 --------------------------------------------------------------
 # B3LYP/6-31G** OPT=(TS, CALCALL, NOEIGEN, maxcycles=100) Freq
 --------------------------------------------------------------
 1/5=1,6=100,10=4,11=1,18=20,26=3,38=1/1,3;
 2/9=110,12=2,17=6,18=5,40=1/2;
 3/5=1,6=6,7=101,11=2,25=1,30=1,71=2,74=-5,140=1/1,2,3;
 4//1;
 5/5=2,38=5/2;
 8/6=4,10=90,11=11/1;
 11/6=1,8=1,9=11,15=111,16=1/1,2,10;
 10/6=1/2;
 6/7=2,8=2,9=2,10=2,18=1,28=1/1;
 7/10=1,25=1/1,2,3,16;
 1/5=1,6=100,10=4,11=1,18=20,26=3/3(3);
 2/9=110/2;
 7/8=1,9=1,25=1,44=-1/16;
 99//99;
 2/9=110/2;
 3/5=1,6=6,7=101,11=2,25=1,30=1,71=2,74=-5,140=1/1,2,3;
 4/5=5,16=3,69=1/1;
 5/5=2,38=5/2;
 8/6=4,10=90,11=11/1;
 11/6=1,8=1,9=11,15=111,16=1/1,2,10;
 10/6=1/2;
 7/10=1,25=1/1,2,3,16;
 1/5=1,6=100,10=4,11=1,18=20,26=3/3(-8);
 2/9=110/2;
 6/7=2,8=2,9=2,10=2,18=1,19=2,28=1/1;
 7/8=1,9=1,25=1,44=-1/16;
 99//99;
 ---------
 pp_3_2 TS
 ---------
 Symbolic Z-matrix:
 Charge =  0 Multiplicity = 1
 C                    -2.49082   0.51066   1.27078 
 C                    -1.19661   0.24338   1.25775 
 C                     0.07119   0.173     0.98329 
 H                    -1.44962  -1.10491   2.85298 
 H                    -3.19769   0.158     2.00114 
 H                    -2.85285   1.42006   0.79575 
 H                    -2.5012   -1.66993   1.25103 
 H                     0.41116  -0.11044  -0.00076 
 H                     0.83205   0.32286   1.72615 
 
 Add virtual bond connecting atoms H7         and H4         Dist= 3.78D+00.
 Add virtual bond connecting atoms H4         and C2         Dist= 3.98D+00.
 Add virtual bond connecting atoms H7         and C1         Dist= 4.12D+00.
 Add virtual bond connecting atoms H7         and H5         Dist= 3.96D+00.

 GradGradGradGradGradGradGradGradGradGradGradGradGradGradGradGradGradGrad
 Berny optimization.
 Initialization pass.
                           ----------------------------
                           !    Initial Parameters    !
                           ! (Angstroms and Degrees)  !
 --------------------------                            --------------------------
 ! Name  Definition              Value          Derivative Info.                !
 --------------------------------------------------------------------------------
 ! R1    R(1,2)                  1.3216         calculate D2E/DX2 analytically  !
 ! R2    R(1,5)                  1.0758         calculate D2E/DX2 analytically  !
 ! R3    R(1,6)                  1.088          calculate D2E/DX2 analytically  !
 ! R4    R(1,7)                  2.1807         calculate D2E/DX2 analytically  !
 ! R5    R(2,3)                  1.2991         calculate D2E/DX2 analytically  !
 ! R6    R(2,4)                  2.104          calculate D2E/DX2 analytically  !
 ! R7    R(3,8)                  1.079          calculate D2E/DX2 analytically  !
 ! R8    R(3,9)                  1.0739         calculate D2E/DX2 analytically  !
 ! R9    R(4,7)                  1.9978         calculate D2E/DX2 analytically  !
 ! R10   R(5,7)                  2.095          calculate D2E/DX2 analytically  !
 ! A1    A(2,1,5)              125.7203         calculate D2E/DX2 analytically  !
 ! A2    A(2,1,6)              119.3796         calculate D2E/DX2 analytically  !
 ! A3    A(2,1,7)               78.5998         calculate D2E/DX2 analytically  !
 ! A4    A(5,1,6)              110.5948         calculate D2E/DX2 analytically  !
 ! A5    A(6,1,7)              146.1267         calculate D2E/DX2 analytically  !
 ! A6    A(1,2,4)               90.2499         calculate D2E/DX2 analytically  !
 ! A7    A(3,2,4)              104.0535         calculate D2E/DX2 analytically  !
 ! A8    A(2,3,8)              120.9568         calculate D2E/DX2 analytically  !
 ! A9    A(2,3,9)              122.5309         calculate D2E/DX2 analytically  !
 ! A10   A(8,3,9)              116.3785         calculate D2E/DX2 analytically  !
 ! A11   A(2,4,7)               68.689          calculate D2E/DX2 analytically  !
 ! A12   A(1,7,4)               72.9882         calculate D2E/DX2 analytically  !
 ! A13   A(4,7,5)               68.9694         calculate D2E/DX2 analytically  !
 ! A14   L(1,2,3,4,-1)         194.3033         calculate D2E/DX2 analytically  !
 ! A15   L(1,2,3,4,-2)         178.6967         calculate D2E/DX2 analytically  !
 ! D1    D(5,1,2,4)              6.6939         calculate D2E/DX2 analytically  !
 ! D2    D(6,1,2,4)            161.1256         calculate D2E/DX2 analytically  !
 ! D3    D(7,1,2,4)            -49.7292         calculate D2E/DX2 analytically  !
 ! D4    D(5,1,3,8)            131.7507         calculate D2E/DX2 analytically  !
 ! D5    D(5,1,3,9)            -50.9085         calculate D2E/DX2 analytically  !
 ! D6    D(6,1,3,8)            -72.607          calculate D2E/DX2 analytically  !
 ! D7    D(6,1,3,9)            104.7338         calculate D2E/DX2 analytically  !
 ! D8    D(7,1,3,8)             76.1082         calculate D2E/DX2 analytically  !
 ! D9    D(7,1,3,9)           -106.551          calculate D2E/DX2 analytically  !
 ! D10   D(2,1,7,4)             57.1713         calculate D2E/DX2 analytically  !
 ! D11   D(6,1,7,4)           -176.1337         calculate D2E/DX2 analytically  !
 ! D12   D(4,2,3,8)            121.6175         calculate D2E/DX2 analytically  !
 ! D13   D(4,2,3,9)            -54.0246         calculate D2E/DX2 analytically  !
 ! D14   D(1,2,4,7)             61.203          calculate D2E/DX2 analytically  !
 ! D15   D(3,2,4,7)           -117.4938         calculate D2E/DX2 analytically  !
 ! D16   D(2,4,7,1)            -33.7373         calculate D2E/DX2 analytically  !
 ! D17   D(2,4,7,5)            -64.2257         calculate D2E/DX2 analytically  !
 --------------------------------------------------------------------------------
 Trust Radius=3.00D-01 FncErr=1.00D-07 GrdErr=1.00D-06 EigMax=2.50D+02 EigMin=1.00D-04
 Number of steps in this run=    100 maximum allowed number of steps=    100.
 Search for a saddle point of order  1.
 GradGradGradGradGradGradGradGradGradGradGradGradGradGradGradGradGradGrad

                          Input orientation:                          
 ---------------------------------------------------------------------
 Center     Atomic      Atomic             Coordinates (Angstroms)
 Number     Number       Type             X           Y           Z
 ---------------------------------------------------------------------
      1          6           0       -2.490822    0.510655    1.270781
      2          6           0       -1.196611    0.243378    1.257745
      3          6           0        0.071190    0.173004    0.983291
      4          1           0       -1.449619   -1.104912    2.852984
      5          1           0       -3.197692    0.157999    2.001135
      6          1           0       -2.852853    1.420063    0.795751
      7          1           0       -2.501195   -1.669933    1.251031
      8          1           0        0.411157   -0.110442   -0.000757
      9          1           0        0.832047    0.322862    1.726150
 ---------------------------------------------------------------------
                    Distance matrix (angstroms):
                    1          2          3          4          5
     1  C    0.000000
     2  C    1.321586   0.000000
     3  C    2.600108   1.299075   0.000000
     4  H    2.489483   2.103969   2.727945   0.000000
     5  H    1.075848   2.136409   3.423715   2.318696   0.000000
     6  H    1.087999   2.083546   3.184392   3.546374   1.778952
     7  H    2.180702   2.315760   3.175731   1.997827   2.095018
     8  H    3.228630   2.072181   1.079013   3.548985   4.135629
     9  H    3.359179   2.083548   1.073872   2.917926   4.042474
                    6          7          8          9
     6  H    0.000000
     7  H    3.143091   0.000000
     8  H    3.691969   3.532815   0.000000
     9  H    3.955753   3.912476   1.829510   0.000000
 Stoichiometry    C3H6
 Framework group  C1[X(C3H6)]
 Deg. of freedom    21
 Full point group                 C1      NOp   1
 Largest Abelian subgroup         C1      NOp   1
 Largest concise Abelian subgroup C1      NOp   1
                         Standard orientation:                         
 ---------------------------------------------------------------------
 Center     Atomic      Atomic             Coordinates (Angstroms)
 Number     Number       Type             X           Y           Z
 ---------------------------------------------------------------------
      1          6           0       -1.231593   -0.281789   -0.010969
      2          6           0        0.065417   -0.032100   -0.055794
      3          6           0        1.361166   -0.088587    0.017969
      4          1           0       -0.327146    1.950928   -0.639043
      5          1           0       -2.011521    0.388125   -0.327791
      6          1           0       -1.577951   -1.312810   -0.038814
      7          1           0       -1.105590    1.554955    1.157772
      8          1           0        1.853286   -0.362762    0.938249
      9          1           0        1.998980    0.196422   -0.797607
 ---------------------------------------------------------------------
 Rotational constants (GHZ):          39.9376253           8.5147065           7.7599066
 Standard basis: 6-31G(d,p) (6D, 7F)
 There are    75 symmetry adapted cartesian basis functions of A   symmetry.
 There are    75 symmetry adapted basis functions of A   symmetry.
    75 basis functions,   126 primitive gaussians,    75 cartesian basis functions
    12 alpha electrons       12 beta electrons
       nuclear repulsion energy        68.6706634061 Hartrees.
 NAtoms=    9 NActive=    9 NUniq=    9 SFac= 1.00D+00 NAtFMM=   60 NAOKFM=F Big=F
 Integral buffers will be    131072 words long.
 Raffenetti 2 integral format.
 Two-electron integral symmetry is turned on.
 One-electron integrals computed using PRISM.
 NBasis=    75 RedAO= T EigKep=  1.69D-03  NBF=    75
 NBsUse=    75 1.00D-06 EigRej= -1.00D+00 NBFU=    75
 ExpMin= 1.61D-01 ExpMax= 3.05D+03 ExpMxC= 4.57D+02 IAcc=3 IRadAn=         5 AccDes= 0.00D+00
 Harris functional with IExCor=  402 and IRadAn=       5 diagonalized for initial guess.
 HarFok:  IExCor=  402 AccDes= 0.00D+00 IRadAn=         5 IDoV= 1 UseB2=F ITyADJ=14
 ICtDFT=  3500011 ScaDFX=  1.000000  1.000000  1.000000  1.000000
 FoFCou: FMM=F IPFlag=           0 FMFlag=      100000 FMFlg1=           0
         NFxFlg=           0 DoJE=T BraDBF=F KetDBF=T FulRan=T
         wScrn=  0.000000 ICntrl=       500 IOpCl=  0 I1Cent=   200000004 NGrid=           0
         NMat0=    1 NMatS0=      1 NMatT0=    0 NMatD0=    1 NMtDS0=    0 NMtDT0=    0
 Petite list used in FoFCou.
 Keep R1 ints in memory in canonical form, NReq=25608259.
 Requested convergence on RMS density matrix=1.00D-08 within 128 cycles.
 Requested convergence on MAX density matrix=1.00D-06.
 Requested convergence on             energy=1.00D-06.
 No special actions if energy rises.
 Integral accuracy reduced to 1.0D-05 until final iterations.
 Initial convergence to 1.0D-05 achieved.  Increase integral accuracy.
 SCF Done:  E(RB3LYP) =  -117.645476535     A.U. after   16 cycles
            NFock= 16  Conv=0.34D-08     -V/T= 2.0103
 DoSCS=F DFT=T ScalE2(SS,OS)=  1.000000  1.000000
 Range of M.O.s used for correlation:     1    75
 NBasis=    75 NAE=    12 NBE=    12 NFC=     0 NFV=     0
 NROrb=     75 NOA=    12 NOB=    12 NVA=    63 NVB=    63
 Symmetrizing basis deriv contribution to polar:
 IMax=3 JMax=2 DiffMx= 0.00D+00
 G2DrvN: will do    10 centers at a time, making    1 passes.
 Calling FoFCou, ICntrl=  3107 FMM=F I1Cent=   0 AccDes= 0.00D+00.
 End of G2Drv F.D. properties file   721 does not exist.
 End of G2Drv F.D. properties file   722 does not exist.
 End of G2Drv F.D. properties file   788 does not exist.
          IDoAtm=111111111
          Differentiating once with respect to electric field.
                with respect to dipole field.
          Differentiating once with respect to nuclear coordinates.
 Keep R1 ints in memory in canonical form, NReq=25532611.
          There are    30 degrees of freedom in the 1st order CPHF.  IDoFFX=6 NUNeed=     3.
     27 vectors produced by pass  0 Test12= 2.52D-15 3.33D-09 XBig12= 1.22D+02 7.31D+00.
 AX will form    27 AO Fock derivatives at one time.
     27 vectors produced by pass  1 Test12= 2.52D-15 3.33D-09 XBig12= 1.29D+01 9.11D-01.
     27 vectors produced by pass  2 Test12= 2.52D-15 3.33D-09 XBig12= 8.97D-02 6.62D-02.
     27 vectors produced by pass  3 Test12= 2.52D-15 3.33D-09 XBig12= 1.13D-04 1.83D-03.
     27 vectors produced by pass  4 Test12= 2.52D-15 3.33D-09 XBig12= 6.57D-08 5.39D-05.
     10 vectors produced by pass  5 Test12= 2.52D-15 3.33D-09 XBig12= 3.00D-11 9.60D-07.
      3 vectors produced by pass  6 Test12= 2.52D-15 3.33D-09 XBig12= 1.20D-14 2.08D-08.
 InvSVY:  IOpt=1 It=  1 EMax= 3.55D-15
 Solved reduced A of dimension   148 with    30 vectors.
 Isotropic polarizability for W=    0.000000       48.21 Bohr**3.
 End of Minotr F.D. properties file   721 does not exist.
 End of Minotr F.D. properties file   722 does not exist.
 End of Minotr F.D. properties file   788 does not exist.

 **********************************************************************

            Population analysis using the SCF Density.

 **********************************************************************

 Orbital symmetries:
       Occupied  (A) (A) (A) (A) (A) (A) (A) (A) (A) (A) (A) (A)
       Virtual   (A) (A) (A) (A) (A) (A) (A) (A) (A) (A) (A) (A)
                 (A) (A) (A) (A) (A) (A) (A) (A) (A) (A) (A) (A)
                 (A) (A) (A) (A) (A) (A) (A) (A) (A) (A) (A) (A)
                 (A) (A) (A) (A) (A) (A) (A) (A) (A) (A) (A) (A)
                 (A) (A) (A) (A) (A) (A) (A) (A) (A) (A) (A) (A)
                 (A) (A) (A)
 The electronic state is 1-A.
 Alpha  occ. eigenvalues --  -10.23874 -10.21808 -10.19685  -0.80950  -0.71900
 Alpha  occ. eigenvalues --   -0.54198  -0.47043  -0.46340  -0.44493  -0.31740
 Alpha  occ. eigenvalues --   -0.26841  -0.22698
 Alpha virt. eigenvalues --   -0.10079  -0.02968   0.03080   0.12739   0.14152
 Alpha virt. eigenvalues --    0.19237   0.21141   0.29926   0.33196   0.42765
 Alpha virt. eigenvalues --    0.54542   0.56290   0.61836   0.63566   0.65729
 Alpha virt. eigenvalues --    0.68917   0.72689   0.79011   0.82634   0.84966
 Alpha virt. eigenvalues --    0.87606   0.90131   0.91596   0.93002   1.02616
 Alpha virt. eigenvalues --    1.11258   1.18116   1.38624   1.41585   1.52211
 Alpha virt. eigenvalues --    1.58317   1.67850   1.71772   1.88048   1.94510
 Alpha virt. eigenvalues --    1.95624   2.00609   2.01581   2.03947   2.06847
 Alpha virt. eigenvalues --    2.10392   2.13120   2.15044   2.22529   2.22725
 Alpha virt. eigenvalues --    2.31672   2.37598   2.39917   2.47218   2.52942
 Alpha virt. eigenvalues --    2.57477   2.75195   2.82249   2.85442   2.95758
 Alpha virt. eigenvalues --    3.20765   3.28212   3.35006   3.53613   3.63260
 Alpha virt. eigenvalues --    4.16976   4.35895   4.64524
          Condensed to atoms (all electrons):
               1          2          3          4          5          6
     1  C    5.189923   0.584319  -0.158403  -0.025460   0.355964   0.355839
     2  C    0.584319   4.543196   0.636575   0.042044  -0.005257  -0.030360
     3  C   -0.158403   0.636575   5.184239  -0.012945   0.004527  -0.001062
     4  H   -0.025460   0.042044  -0.012945   0.946260  -0.007252   0.003315
     5  H    0.355964  -0.005257   0.004527  -0.007252   0.522643  -0.042888
     6  H    0.355839  -0.030360  -0.001062   0.003315  -0.042888   0.582748
     7  H    0.015142  -0.035466  -0.010563   0.151836   0.008841   0.003446
     8  H    0.001170  -0.014102   0.360564   0.001950  -0.000036   0.000391
     9  H    0.003112  -0.004459   0.358820  -0.003162  -0.000102  -0.000080
               7          8          9
     1  C    0.015142   0.001170   0.003112
     2  C   -0.035466  -0.014102  -0.004459
     3  C   -0.010563   0.360564   0.358820
     4  H    0.151836   0.001950  -0.003162
     5  H    0.008841  -0.000036  -0.000102
     6  H    0.003446   0.000391  -0.000080
     7  H    0.938551   0.000010   0.000341
     8  H    0.000010   0.551017  -0.037683
     9  H    0.000341  -0.037683   0.543569
 Mulliken charges:
               1
     1  C   -0.321606
     2  C    0.283509
     3  C   -0.361752
     4  H   -0.096586
     5  H    0.163560
     6  H    0.128651
     7  H   -0.072138
     8  H    0.136718
     9  H    0.139644
 Sum of Mulliken charges =  -0.00000
 Mulliken charges with hydrogens summed into heavy atoms:
               1
     1  C   -0.101533
     2  C    0.186924
     3  C   -0.085391
 APT charges:
               1
     1  C   -0.085101
     2  C    0.235914
     3  C   -0.239912
     4  H   -0.054541
     5  H    0.051102
     6  H    0.028293
     7  H   -0.070872
     8  H    0.065994
     9  H    0.069123
 Sum of APT charges =  -0.00000
 APT charges with hydrogens summed into heavy atoms:
               1
     1  C   -0.076578
     2  C    0.181373
     3  C   -0.104796
 Electronic spatial extent (au):  <R**2>=            217.1388
 Charge=             -0.0000 electrons
 Dipole moment (field-independent basis, Debye):
    X=              0.2934    Y=             -1.6125    Z=             -0.3209  Tot=              1.6701
 Quadrupole moment (field-independent basis, Debye-Ang):
   XX=            -17.3354   YY=            -24.2224   ZZ=            -21.2304
   XY=              1.4384   XZ=              0.7964   YZ=             -1.0284
 Traceless Quadrupole moment (field-independent basis, Debye-Ang):
   XX=              3.5939   YY=             -3.2930   ZZ=             -0.3010
   XY=              1.4384   XZ=              0.7964   YZ=             -1.0284
 Octapole moment (field-independent basis, Debye-Ang**2):
  XXX=              2.7629  YYY=            -13.0282  ZZZ=             -0.7000  XYY=              0.5966
  XXY=             -3.0754  XXZ=             -2.0741  XZZ=              3.3092  YZZ=             -2.0698
  YYZ=             -0.9681  XYZ=             -0.5288
 Hexadecapole moment (field-independent basis, Debye-Ang**3):
 XXXX=           -178.6962 YYYY=            -98.3976 ZZZZ=            -42.3966 XXXY=              5.3167
 XXXZ=              4.5219 YYYX=             10.9570 YYYZ=             -3.1390 ZZZX=              2.6169
 ZZZY=             -1.8321 XXYY=            -47.9709 XXZZ=            -37.1302 YYZZ=            -22.0387
 XXYZ=             -3.1632 YYXZ=              1.5069 ZZXY=              1.0218
 N-N= 6.867066340613D+01 E-N=-4.086115442894D+02  KE= 1.164464451960D+02
  Exact polarizability:  61.730  -4.330  46.366  -6.968  -1.228  36.547
 Approx polarizability: 115.581  -5.851  77.663 -37.095  -7.360  94.913
 Calling FoFJK, ICntrl=    100127 FMM=F ISym2X=0 I1Cent= 0 IOpClX= 0 NMat=1 NMatS=1 NMatT=0.
 ***** Axes restored to original set *****
 -------------------------------------------------------------------
 Center     Atomic                   Forces (Hartrees/Bohr)
 Number     Number              X              Y              Z
 -------------------------------------------------------------------
      1        6          -0.016694737    0.013294480    0.006940259
      2        6          -0.001595028   -0.004219524    0.015865582
      3        6           0.009997615   -0.001169192   -0.008977648
      4        1          -0.016537215   -0.009015445   -0.035702756
      5        1           0.000392110   -0.013923893   -0.004282070
      6        1           0.003995848    0.004177827   -0.006729322
      7        1           0.014629428    0.010578093    0.032534395
      8        1           0.001634562   -0.005373022   -0.005350499
      9        1           0.004177418    0.005650676    0.005702060
 -------------------------------------------------------------------
 Cartesian Forces:  Max     0.035702756 RMS     0.012772348
 FormGI is forming the generalized inverse of G from B-inverse, IUseBI=4.

 GradGradGradGradGradGradGradGradGradGradGradGradGradGradGradGradGradGrad
 Berny optimization.
 Internal  Forces:  Max     0.030400528 RMS     0.006853562
 Search for a saddle point.
 Step number   1 out of a maximum of  100
 All quantities printed in internal units (Hartrees-Bohrs-Radians)
 Swapping is turned off.
 Second derivative matrix not updated -- analytic derivatives used.
 ITU=  0
     Eigenvalues ---   -0.03955  -0.01003  -0.00353   0.00683   0.01077
     Eigenvalues ---    0.01308   0.01531   0.02006   0.03532   0.05169
     Eigenvalues ---    0.06319   0.07376   0.08962   0.10006   0.10401
     Eigenvalues ---    0.35025   0.36049   0.37451   0.38771   0.54851
     Eigenvalues ---    0.71515
 Eigenvectors required to have negative eigenvalues:
                          R9        R6        R4        D3        A14
   1                   -0.69140   0.41312   0.27864   0.19507  -0.14494
                          D13       A5        D10       D4        D11
   1                   -0.13897   0.13815   0.13768  -0.13421   0.12498
 RFO step:  Lambda0=1.105026810D-02 Lambda=-3.18214450D-02.
 Linear search not attempted -- option 19 set.
 Maximum step size (   0.300) exceeded in Quadratic search.
    -- Step size scaled by   0.262
 Iteration  1 RMS(Cart)=  0.03088000 RMS(Int)=  0.00784005
 Iteration  2 RMS(Cart)=  0.00686085 RMS(Int)=  0.00032706
 Iteration  3 RMS(Cart)=  0.00002156 RMS(Int)=  0.00032591
 Iteration  4 RMS(Cart)=  0.00000001 RMS(Int)=  0.00032591
 Variable       Old X    -DE/DX   Delta X   Delta X   Delta X     New X
                                 (Linear)    (Quad)   (Total)
    R1        2.49744   0.01094   0.00000   0.01472   0.01467   2.51211
    R2        2.03306   0.00215   0.00000   0.00009   0.00026   2.03332
    R3        2.05602   0.00510   0.00000   0.00383   0.00383   2.05985
    R4        4.12093   0.00405   0.00000  -0.06947  -0.06987   4.05106
    R5        2.45490   0.01732   0.00000   0.01309   0.01308   2.46798
    R6        3.97593  -0.00652   0.00000  -0.25428  -0.25434   3.72159
    R7        2.03904   0.00681   0.00000   0.00413   0.00413   2.04317
    R8        2.02932   0.00769   0.00000   0.00417   0.00417   2.03350
    R9        3.77535  -0.03040   0.00000  -0.07985  -0.07924   3.69610
   R10        3.95901  -0.00620   0.00000  -0.05827  -0.05842   3.90059
    A1        2.19423  -0.00160   0.00000  -0.00845  -0.00853   2.18571
    A2        2.08357  -0.00126   0.00000   0.00158   0.00186   2.08543
    A3        1.37183  -0.00199   0.00000  -0.00368  -0.00433   1.36749
    A4        1.93024   0.00439   0.00000   0.00745   0.00745   1.93770
    A5        2.55039   0.00382   0.00000  -0.00457  -0.00432   2.54607
    A6        1.57516  -0.00289   0.00000   0.02662   0.02628   1.60144
    A7        1.81608   0.00541   0.00000   0.04314   0.04335   1.85943
    A8        2.11110   0.00071   0.00000  -0.00183  -0.00185   2.10924
    A9        2.13857  -0.00249   0.00000  -0.00374  -0.00375   2.13482
   A10        2.03119   0.00172   0.00000   0.00456   0.00451   2.03570
   A11        1.19885   0.00721   0.00000   0.04175   0.04254   1.24139
   A12        1.27388   0.00260   0.00000  -0.02001  -0.02022   1.25367
   A13        1.20374   0.00406   0.00000   0.00848   0.00894   1.21269
   A14        3.39123   0.00252   0.00000   0.06975   0.06964   3.46087
   A15        3.11885   0.00034   0.00000  -0.01731  -0.01702   3.10182
    D1        0.11683  -0.00042   0.00000   0.00827   0.00834   0.12517
    D2        2.81217   0.00496   0.00000   0.01187   0.01252   2.82469
    D3       -0.86794   0.00762   0.00000   0.00412   0.00477  -0.86317
    D4        2.29948  -0.00468   0.00000   0.02651   0.02655   2.32603
    D5       -0.88852  -0.00522   0.00000   0.01415   0.01431  -0.87421
    D6       -1.26723   0.00021   0.00000   0.04029   0.03996  -1.22727
    D7        1.82795  -0.00033   0.00000   0.02793   0.02772   1.85567
    D8        1.32834   0.00330   0.00000   0.02970   0.02984   1.35818
    D9       -1.85967   0.00277   0.00000   0.01734   0.01760  -1.84206
   D10        0.99783  -0.00129   0.00000  -0.06244  -0.06228   0.93555
   D11       -3.07411  -0.00390   0.00000  -0.06951  -0.06958   3.13949
   D12        2.12263  -0.00542   0.00000   0.00773   0.00789   2.13051
   D13       -0.94291  -0.00447   0.00000   0.02388   0.02365  -0.91926
   D14        1.06819  -0.00116   0.00000  -0.02952  -0.02884   1.03935
   D15       -2.05065  -0.00150   0.00000  -0.01220  -0.01182  -2.06247
   D16       -0.58883  -0.00132   0.00000  -0.00837  -0.00843  -0.59726
   D17       -1.12095  -0.00143   0.00000  -0.02261  -0.02206  -1.14301
         Item               Value     Threshold  Converged?
 Maximum Force            0.030401     0.000450     NO 
 RMS     Force            0.006854     0.000300     NO 
 Maximum Displacement     0.112791     0.001800     NO 
 RMS     Displacement     0.034679     0.001200     NO 
 Predicted change in Energy=-6.218810D-03
 GradGradGradGradGradGradGradGradGradGradGradGradGradGradGradGradGradGrad

                          Input orientation:                          
 ---------------------------------------------------------------------
 Center     Atomic      Atomic             Coordinates (Angstroms)
 Number     Number       Type             X           Y           Z
 ---------------------------------------------------------------------
      1          6           0       -2.491664    0.493002    1.278697
      2          6           0       -1.192979    0.210702    1.308577
      3          6           0        0.074199    0.172509    0.994842
      4          1           0       -1.441395   -1.059084    2.793298
      5          1           0       -3.218242    0.149146    1.993953
      6          1           0       -2.831962    1.401371    0.781484
      7          1           0       -2.514339   -1.650582    1.268685
      8          1           0        0.389841   -0.083295   -0.007118
      9          1           0        0.852144    0.308906    1.725693
 ---------------------------------------------------------------------
                    Distance matrix (angstroms):
                    1          2          3          4          5
     1  C    0.000000
     2  C    1.329349   0.000000
     3  C    2.601334   1.305997   0.000000
     4  H    2.409575   1.969381   2.654861   0.000000
     5  H    1.075985   2.138976   3.440775   2.292587   0.000000
     6  H    1.090026   2.093271   3.162498   3.469137   1.785319
     7  H    2.143727   2.282972   3.177920   1.955894   2.064101
     8  H    3.207571   2.079137   1.081198   3.485386   4.132382
     9  H    3.378572   2.089536   1.076080   2.876021   4.082343
                    6          7          8          9
     6  H    0.000000
     7  H    3.106874   0.000000
     8  H    3.634026   3.538125   0.000000
     9  H    3.956975   3.921946   1.835805   0.000000
 Stoichiometry    C3H6
 Framework group  C1[X(C3H6)]
 Deg. of freedom    21
 Full point group                 C1      NOp   1
 Largest Abelian subgroup         C1      NOp   1
 Largest concise Abelian subgroup C1      NOp   1
                         Standard orientation:                         
 ---------------------------------------------------------------------
 Center     Atomic      Atomic             Coordinates (Angstroms)
 Number     Number       Type             X           Y           Z
 ---------------------------------------------------------------------
      1          6           0       -1.231108   -0.284156   -0.010708
      2          6           0        0.064520    0.006486   -0.074300
      3          6           0        1.363011   -0.093563    0.023374
      4          1           0       -0.316447    1.865569   -0.600734
      5          1           0       -2.029442    0.368240   -0.318584
      6          1           0       -1.548668   -1.326722   -0.029926
      7          1           0       -1.135371    1.520930    1.141710
      8          1           0        1.827095   -0.403931    0.949272
      9          1           0        2.024297    0.203310   -0.771934
 ---------------------------------------------------------------------
 Rotational constants (GHZ):          41.3154626           8.5135220           7.7899080
 Standard basis: 6-31G(d,p) (6D, 7F)
 There are    75 symmetry adapted cartesian basis functions of A   symmetry.
 There are    75 symmetry adapted basis functions of A   symmetry.
    75 basis functions,   126 primitive gaussians,    75 cartesian basis functions
    12 alpha electrons       12 beta electrons
       nuclear repulsion energy        68.7152256589 Hartrees.
 NAtoms=    9 NActive=    9 NUniq=    9 SFac= 1.00D+00 NAtFMM=   60 NAOKFM=F Big=F
 Integral buffers will be    131072 words long.
 Raffenetti 2 integral format.
 Two-electron integral symmetry is turned on.
 One-electron integrals computed using PRISM.
 NBasis=    75 RedAO= T EigKep=  1.91D-03  NBF=    75
 NBsUse=    75 1.00D-06 EigRej= -1.00D+00 NBFU=    75
 Initial guess from the checkpoint file:  "/scratch/brown/zhao922/pyGSM/new-benchmarking/R1-3/TS-folder/Gau-119427.chk"
 B after Tr=     0.000000   -0.000000    0.000000
         Rot=    0.999992   -0.003270    0.002059   -0.001301 Ang=  -0.47 deg.
 ExpMin= 1.61D-01 ExpMax= 3.05D+03 ExpMxC= 4.57D+02 IAcc=3 IRadAn=         5 AccDes= 0.00D+00
 Harris functional with IExCor=  402 and IRadAn=       5 diagonalized for initial guess.
 HarFok:  IExCor=  402 AccDes= 0.00D+00 IRadAn=         5 IDoV= 1 UseB2=F ITyADJ=14
 ICtDFT=  3500011 ScaDFX=  1.000000  1.000000  1.000000  1.000000
 FoFCou: FMM=F IPFlag=           0 FMFlag=      100000 FMFlg1=           0
         NFxFlg=           0 DoJE=T BraDBF=F KetDBF=T FulRan=T
         wScrn=  0.000000 ICntrl=       500 IOpCl=  0 I1Cent=   200000004 NGrid=           0
         NMat0=    1 NMatS0=      1 NMatT0=    0 NMatD0=    1 NMtDS0=    0 NMtDT0=    0
 Petite list used in FoFCou.
 Keep R1 ints in memory in canonical form, NReq=25608259.
 Requested convergence on RMS density matrix=1.00D-08 within 128 cycles.
 Requested convergence on MAX density matrix=1.00D-06.
 Requested convergence on             energy=1.00D-06.
 No special actions if energy rises.
 Integral accuracy reduced to 1.0D-05 until final iterations.
 Initial convergence to 1.0D-05 achieved.  Increase integral accuracy.
 SCF Done:  E(RB3LYP) =  -117.651824393     A.U. after   13 cycles
            NFock= 13  Conv=0.84D-08     -V/T= 2.0106
 DoSCS=F DFT=T ScalE2(SS,OS)=  1.000000  1.000000
 Range of M.O.s used for correlation:     1    75
 NBasis=    75 NAE=    12 NBE=    12 NFC=     0 NFV=     0
 NROrb=     75 NOA=    12 NOB=    12 NVA=    63 NVB=    63
 Symmetrizing basis deriv contribution to polar:
 IMax=3 JMax=2 DiffMx= 0.00D+00
 G2DrvN: will do    10 centers at a time, making    1 passes.
 Calling FoFCou, ICntrl=  3107 FMM=F I1Cent=   0 AccDes= 0.00D+00.
 End of G2Drv F.D. properties file   721 does not exist.
 End of G2Drv F.D. properties file   722 does not exist.
 End of G2Drv F.D. properties file   788 does not exist.
          IDoAtm=111111111
          Differentiating once with respect to electric field.
                with respect to dipole field.
          Differentiating once with respect to nuclear coordinates.
 Keep R1 ints in memory in canonical form, NReq=25532604.
          There are    30 degrees of freedom in the 1st order CPHF.  IDoFFX=6 NUNeed=     3.
     27 vectors produced by pass  0 Test12= 2.52D-15 3.33D-09 XBig12= 1.35D+02 8.28D+00.
 AX will form    27 AO Fock derivatives at one time.
     27 vectors produced by pass  1 Test12= 2.52D-15 3.33D-09 XBig12= 1.40D+01 1.01D+00.
     27 vectors produced by pass  2 Test12= 2.52D-15 3.33D-09 XBig12= 1.05D-01 7.10D-02.
     27 vectors produced by pass  3 Test12= 2.52D-15 3.33D-09 XBig12= 1.39D-04 2.26D-03.
     27 vectors produced by pass  4 Test12= 2.52D-15 3.33D-09 XBig12= 7.63D-08 6.10D-05.
     10 vectors produced by pass  5 Test12= 2.52D-15 3.33D-09 XBig12= 3.27D-11 9.36D-07.
      3 vectors produced by pass  6 Test12= 2.52D-15 3.33D-09 XBig12= 1.32D-14 2.66D-08.
 InvSVY:  IOpt=1 It=  1 EMax= 7.11D-15
 Solved reduced A of dimension   148 with    30 vectors.
 Isotropic polarizability for W=    0.000000       48.23 Bohr**3.
 End of Minotr F.D. properties file   721 does not exist.
 End of Minotr F.D. properties file   722 does not exist.
 End of Minotr F.D. properties file   788 does not exist.
 Calling FoFJK, ICntrl=    100127 FMM=F ISym2X=0 I1Cent= 0 IOpClX= 0 NMat=1 NMatS=1 NMatT=0.
 ***** Axes restored to original set *****
 -------------------------------------------------------------------
 Center     Atomic                   Forces (Hartrees/Bohr)
 Number     Number              X              Y              Z
 -------------------------------------------------------------------
      1        6          -0.015457646    0.011038256    0.004367417
      2        6          -0.001256853   -0.009218819    0.021605231
      3        6           0.008061310   -0.000209354   -0.008612493
      4        1          -0.014379938   -0.004667368   -0.037027719
      5        1           0.000847472   -0.011857201   -0.003545109
      6        1           0.004142657    0.002604601   -0.006589047
      7        1           0.013654491    0.011803597    0.029572005
      8        1           0.001277882   -0.002676726   -0.004469131
      9        1           0.003110624    0.003183014    0.004698846
 -------------------------------------------------------------------
 Cartesian Forces:  Max     0.037027719 RMS     0.012418926
 FormGI is forming the generalized inverse of G from B-inverse, IUseBI=4.

 GradGradGradGradGradGradGradGradGradGradGradGradGradGradGradGradGradGrad
 Berny optimization.
 Internal  Forces:  Max     0.027583746 RMS     0.006233847
 Search for a saddle point.
 Step number   2 out of a maximum of  100
 All quantities printed in internal units (Hartrees-Bohrs-Radians)
 Swapping is turned off.
 Second derivative matrix not updated -- analytic derivatives used.
 ITU=  0  0
     Eigenvalues ---   -0.04998  -0.01244  -0.00390   0.00819   0.01078
     Eigenvalues ---    0.01513   0.01585   0.02028   0.03667   0.05193
     Eigenvalues ---    0.06448   0.07675   0.09375   0.10012   0.10438
     Eigenvalues ---    0.34761   0.35843   0.37003   0.38296   0.52682
     Eigenvalues ---    0.69000
 Eigenvectors required to have negative eigenvalues:
                          R9        R6        R4        D3        A14
   1                   -0.59688   0.51732   0.28303   0.17996  -0.17913
                          D10       D4        D13       A5        D11
   1                    0.15562  -0.14610  -0.14064   0.13220   0.12561
 RFO step:  Lambda0=3.028534093D-03 Lambda=-3.79208606D-02.
 Linear search not attempted -- option 19 set.
 Maximum step size (   0.300) exceeded in Quadratic search.
    -- Step size scaled by   0.273
 Iteration  1 RMS(Cart)=  0.03076834 RMS(Int)=  0.00436911
 Iteration  2 RMS(Cart)=  0.00383313 RMS(Int)=  0.00051231
 Iteration  3 RMS(Cart)=  0.00000572 RMS(Int)=  0.00051225
 Iteration  4 RMS(Cart)=  0.00000000 RMS(Int)=  0.00051225
 Variable       Old X    -DE/DX   Delta X   Delta X   Delta X     New X
                                 (Linear)    (Quad)   (Total)
    R1        2.51211   0.00894   0.00000   0.01109   0.01077   2.52287
    R2        2.03332   0.00159   0.00000   0.00078   0.00091   2.03423
    R3        2.05985   0.00388   0.00000   0.00240   0.00240   2.06225
    R4        4.05106   0.00208   0.00000  -0.02477  -0.02575   4.02530
    R5        2.46798   0.01409   0.00000   0.01355   0.01354   2.48152
    R6        3.72159  -0.01175   0.00000  -0.22959  -0.22913   3.49246
    R7        2.04317   0.00515   0.00000   0.00299   0.00299   2.04616
    R8        2.03350   0.00584   0.00000   0.00349   0.00349   2.03698
    R9        3.69610  -0.02758   0.00000  -0.15607  -0.15528   3.54082
   R10        3.90059  -0.00603   0.00000  -0.04181  -0.04178   3.85881
    A1        2.18571  -0.00173   0.00000  -0.00984  -0.01022   2.17549
    A2        2.08543  -0.00041   0.00000   0.00725   0.00808   2.09350
    A3        1.36749  -0.00241   0.00000  -0.01661  -0.01803   1.34946
    A4        1.93770   0.00346   0.00000   0.00654   0.00624   1.94393
    A5        2.54607   0.00343   0.00000   0.01527   0.01579   2.56186
    A6        1.60144  -0.00168   0.00000   0.02228   0.02181   1.62325
    A7        1.85943   0.00538   0.00000   0.03809   0.03835   1.89778
    A8        2.10924   0.00051   0.00000  -0.00101  -0.00106   2.10818
    A9        2.13482  -0.00196   0.00000  -0.00332  -0.00331   2.13151
   A10        2.03570   0.00136   0.00000   0.00328   0.00325   2.03895
   A11        1.24139   0.00744   0.00000   0.05643   0.05820   1.29959
   A12        1.25367   0.00170   0.00000  -0.01289  -0.01352   1.24015
   A13        1.21269   0.00374   0.00000   0.01771   0.01775   1.23044
   A14        3.46087   0.00370   0.00000   0.06037   0.06016   3.52103
   A15        3.10182  -0.00013   0.00000  -0.01180  -0.01152   3.09030
    D1        0.12517  -0.00022   0.00000   0.00305   0.00309   0.12826
    D2        2.82469   0.00437   0.00000   0.01605   0.01657   2.84126
    D3       -0.86317   0.00669   0.00000   0.02681   0.02737  -0.83580
    D4        2.32603  -0.00325   0.00000   0.01214   0.01203   2.33806
    D5       -0.87421  -0.00403   0.00000   0.00008   0.00001  -0.87421
    D6       -1.22727   0.00110   0.00000   0.03129   0.03108  -1.19619
    D7        1.85567   0.00032   0.00000   0.01923   0.01905   1.87472
    D8        1.35818   0.00386   0.00000   0.04182   0.04223   1.40041
    D9       -1.84206   0.00307   0.00000   0.02976   0.03020  -1.81186
   D10        0.93555  -0.00260   0.00000  -0.05270  -0.05272   0.88283
   D11        3.13949  -0.00463   0.00000  -0.05371  -0.05423   3.08526
   D12        2.13051  -0.00430   0.00000  -0.00100  -0.00108   2.12943
   D13       -0.91926  -0.00316   0.00000   0.01280   0.01258  -0.90667
   D14        1.03935  -0.00133   0.00000  -0.01621  -0.01578   1.02358
   D15       -2.06247  -0.00120   0.00000  -0.00441  -0.00426  -2.06673
   D16       -0.59726  -0.00119   0.00000  -0.00309  -0.00330  -0.60056
   D17       -1.14301  -0.00139   0.00000  -0.00974  -0.00922  -1.15223
         Item               Value     Threshold  Converged?
 Maximum Force            0.027584     0.000450     NO 
 RMS     Force            0.006234     0.000300     NO 
 Maximum Displacement     0.133312     0.001800     NO 
 RMS     Displacement     0.032778     0.001200     NO 
 Predicted change in Energy=-9.983911D-03
 GradGradGradGradGradGradGradGradGradGradGradGradGradGradGradGradGradGrad

                          Input orientation:                          
 ---------------------------------------------------------------------
 Center     Atomic      Atomic             Coordinates (Angstroms)
 Number     Number       Type             X           Y           Z
 ---------------------------------------------------------------------
      1          6           0       -2.491062    0.485821    1.283363
      2          6           0       -1.192585    0.182391    1.348443
      3          6           0        0.074645    0.171883    1.004325
      4          1           0       -1.444528   -1.027311    2.722752
      5          1           0       -3.235475    0.142490    1.981043
      6          1           0       -2.813114    1.395367    0.773526
      7          1           0       -2.509298   -1.644038    1.309686
      8          1           0        0.371317   -0.058392   -0.011242
      9          1           0        0.865703    0.294464    1.726215
 ---------------------------------------------------------------------
                    Distance matrix (angstroms):
                    1          2          3          4          5
     1  C    0.000000
     2  C    1.335046   0.000000
     3  C    2.599860   1.313164   0.000000
     4  H    2.335945   1.848128   2.588232   0.000000
     5  H    1.076469   2.138966   3.451339   2.264080   0.000000
     6  H    1.091295   2.104270   3.144731   3.397333   1.790583
     7  H    2.130099   2.251905   3.172944   1.873724   2.041993
     8  H    3.188320   2.086267   1.082782   3.422108   4.125349
     9  H    3.391255   2.095668   1.077926   2.842067   4.111897
                    6          7          8          9
     6  H    0.000000
     7  H    3.101250   0.000000
     8  H    3.587461   3.543596   0.000000
     9  H    3.956425   3.914322   1.840565   0.000000
 Stoichiometry    C3H6
 Framework group  C1[X(C3H6)]
 Deg. of freedom    21
 Full point group                 C1      NOp   1
 Largest Abelian subgroup         C1      NOp   1
 Largest concise Abelian subgroup C1      NOp   1
                         Standard orientation:                         
 ---------------------------------------------------------------------
 Center     Atomic      Atomic             Coordinates (Angstroms)
 Number     Number       Type             X           Y           Z
 ---------------------------------------------------------------------
      1          6           0       -1.229591   -0.289298   -0.008337
      2          6           0        0.062065    0.038989   -0.087087
      3          6           0        1.363047   -0.098770    0.026356
      4          1           0       -0.310687    1.785597   -0.562474
      5          1           0       -2.042834    0.350509   -0.305098
      6          1           0       -1.526279   -1.339458   -0.016360
      7          1           0       -1.140997    1.529087    1.097535
      8          1           0        1.805993   -0.433632    0.955917
      9          1           0        2.041677    0.202367   -0.755117
 ---------------------------------------------------------------------
 Rotational constants (GHZ):          42.3051060           8.5423342           7.8142937
 Standard basis: 6-31G(d,p) (6D, 7F)
 There are    75 symmetry adapted cartesian basis functions of A   symmetry.
 There are    75 symmetry adapted basis functions of A   symmetry.
    75 basis functions,   126 primitive gaussians,    75 cartesian basis functions
    12 alpha electrons       12 beta electrons
       nuclear repulsion energy        68.7862961612 Hartrees.
 NAtoms=    9 NActive=    9 NUniq=    9 SFac= 1.00D+00 NAtFMM=   60 NAOKFM=F Big=F
 Integral buffers will be    131072 words long.
 Raffenetti 2 integral format.
 Two-electron integral symmetry is turned on.
 One-electron integrals computed using PRISM.
 NBasis=    75 RedAO= T EigKep=  2.13D-03  NBF=    75
 NBsUse=    75 1.00D-06 EigRej= -1.00D+00 NBFU=    75
 Initial guess from the checkpoint file:  "/scratch/brown/zhao922/pyGSM/new-benchmarking/R1-3/TS-folder/Gau-119427.chk"
 B after Tr=    -0.000000    0.000000   -0.000000
         Rot=    0.999998    0.001530    0.000986   -0.000531 Ang=   0.22 deg.
 ExpMin= 1.61D-01 ExpMax= 3.05D+03 ExpMxC= 4.57D+02 IAcc=3 IRadAn=         5 AccDes= 0.00D+00
 Harris functional with IExCor=  402 and IRadAn=       5 diagonalized for initial guess.
 HarFok:  IExCor=  402 AccDes= 0.00D+00 IRadAn=         5 IDoV= 1 UseB2=F ITyADJ=14
 ICtDFT=  3500011 ScaDFX=  1.000000  1.000000  1.000000  1.000000
 FoFCou: FMM=F IPFlag=           0 FMFlag=      100000 FMFlg1=           0
         NFxFlg=           0 DoJE=T BraDBF=F KetDBF=T FulRan=T
         wScrn=  0.000000 ICntrl=       500 IOpCl=  0 I1Cent=   200000004 NGrid=           0
         NMat0=    1 NMatS0=      1 NMatT0=    0 NMatD0=    1 NMtDS0=    0 NMtDT0=    0
 Petite list used in FoFCou.
 Keep R1 ints in memory in canonical form, NReq=25608259.
 Requested convergence on RMS density matrix=1.00D-08 within 128 cycles.
 Requested convergence on MAX density matrix=1.00D-06.
 Requested convergence on             energy=1.00D-06.
 No special actions if energy rises.
 Integral accuracy reduced to 1.0D-05 until final iterations.
 Initial convergence to 1.0D-05 achieved.  Increase integral accuracy.
 SCF Done:  E(RB3LYP) =  -117.661843500     A.U. after   13 cycles
            NFock= 13  Conv=0.28D-08     -V/T= 2.0109
 DoSCS=F DFT=T ScalE2(SS,OS)=  1.000000  1.000000
 Range of M.O.s used for correlation:     1    75
 NBasis=    75 NAE=    12 NBE=    12 NFC=     0 NFV=     0
 NROrb=     75 NOA=    12 NOB=    12 NVA=    63 NVB=    63
 Symmetrizing basis deriv contribution to polar:
 IMax=3 JMax=2 DiffMx= 0.00D+00
 G2DrvN: will do    10 centers at a time, making    1 passes.
 Calling FoFCou, ICntrl=  3107 FMM=F I1Cent=   0 AccDes= 0.00D+00.
 End of G2Drv F.D. properties file   721 does not exist.
 End of G2Drv F.D. properties file   722 does not exist.
 End of G2Drv F.D. properties file   788 does not exist.
          IDoAtm=111111111
          Differentiating once with respect to electric field.
                with respect to dipole field.
          Differentiating once with respect to nuclear coordinates.
 Keep R1 ints in memory in canonical form, NReq=25532604.
          There are    30 degrees of freedom in the 1st order CPHF.  IDoFFX=6 NUNeed=     3.
     27 vectors produced by pass  0 Test12= 2.52D-15 3.33D-09 XBig12= 1.44D+02 9.15D+00.
 AX will form    27 AO Fock derivatives at one time.
     27 vectors produced by pass  1 Test12= 2.52D-15 3.33D-09 XBig12= 1.47D+01 1.03D+00.
     27 vectors produced by pass  2 Test12= 2.52D-15 3.33D-09 XBig12= 1.21D-01 7.65D-02.
     27 vectors produced by pass  3 Test12= 2.52D-15 3.33D-09 XBig12= 1.65D-04 2.67D-03.
     27 vectors produced by pass  4 Test12= 2.52D-15 3.33D-09 XBig12= 8.85D-08 6.53D-05.
     10 vectors produced by pass  5 Test12= 2.52D-15 3.33D-09 XBig12= 3.68D-11 9.79D-07.
      3 vectors produced by pass  6 Test12= 2.52D-15 3.33D-09 XBig12= 1.42D-14 3.06D-08.
 InvSVY:  IOpt=1 It=  1 EMax= 5.33D-15
 Solved reduced A of dimension   148 with    30 vectors.
 Isotropic polarizability for W=    0.000000       47.84 Bohr**3.
 End of Minotr F.D. properties file   721 does not exist.
 End of Minotr F.D. properties file   722 does not exist.
 End of Minotr F.D. properties file   788 does not exist.
 Calling FoFJK, ICntrl=    100127 FMM=F ISym2X=0 I1Cent= 0 IOpClX= 0 NMat=1 NMatS=1 NMatT=0.
 ***** Axes restored to original set *****
 -------------------------------------------------------------------
 Center     Atomic                   Forces (Hartrees/Bohr)
 Number     Number              X              Y              Z
 -------------------------------------------------------------------
      1        6          -0.014307489    0.010363063    0.002491221
      2        6          -0.001518008   -0.013662088    0.026071636
      3        6           0.006329175    0.000605313   -0.008160606
      4        1          -0.013203635   -0.001494106   -0.039838237
      5        1           0.001094478   -0.010367928   -0.003070151
      6        1           0.004484530    0.001495725   -0.006350932
      7        1           0.013824419    0.012421453    0.028619945
      8        1           0.001034966   -0.000627633   -0.003650159
      9        1           0.002261564    0.001266200    0.003887282
 -------------------------------------------------------------------
 Cartesian Forces:  Max     0.039838237 RMS     0.012822998
 FormGI is forming the generalized inverse of G from B-inverse, IUseBI=4.

 GradGradGradGradGradGradGradGradGradGradGradGradGradGradGradGradGradGrad
 Berny optimization.
 Internal  Forces:  Max     0.026879169 RMS     0.006150177
 Search for a saddle point.
 Step number   3 out of a maximum of  100
 All quantities printed in internal units (Hartrees-Bohrs-Radians)
 Swapping is turned off.
 Second derivative matrix not updated -- analytic derivatives used.
 ITU=  0  0  0
     Eigenvalues ---   -0.05960  -0.01316  -0.00319   0.00896   0.01072
     Eigenvalues ---    0.01490   0.01748   0.02027   0.03661   0.05226
     Eigenvalues ---    0.06637   0.07776   0.09746   0.10028   0.10556
     Eigenvalues ---    0.34597   0.35681   0.36685   0.37901   0.51193
     Eigenvalues ---    0.66652
 Eigenvectors required to have negative eigenvalues:
                          R6        R9        R4        A14       D3
   1                    0.56479  -0.56157   0.26386  -0.19272   0.17064
                          D10       D4        D13       A5        D11
   1                    0.16533  -0.14233  -0.13786   0.12779   0.12221
 RFO step:  Lambda0=6.671777236D-04 Lambda=-4.15315688D-02.
 Linear search not attempted -- option 19 set.
 Maximum step size (   0.300) exceeded in Quadratic search.
    -- Step size scaled by   0.278
 Iteration  1 RMS(Cart)=  0.03240753 RMS(Int)=  0.00176828
 Iteration  2 RMS(Cart)=  0.00148973 RMS(Int)=  0.00065529
 Iteration  3 RMS(Cart)=  0.00000080 RMS(Int)=  0.00065529
 Variable       Old X    -DE/DX   Delta X   Delta X   Delta X     New X
                                 (Linear)    (Quad)   (Total)
    R1        2.52287   0.00707   0.00000   0.00708   0.00668   2.52955
    R2        2.03423   0.00122   0.00000   0.00118   0.00129   2.03552
    R3        2.06225   0.00289   0.00000   0.00119   0.00119   2.06344
    R4        4.02530   0.00128   0.00000   0.00778   0.00629   4.03159
    R5        2.48152   0.01134   0.00000   0.01327   0.01326   2.49478
    R6        3.49246  -0.01636   0.00000  -0.20866  -0.20776   3.28469
    R7        2.04616   0.00384   0.00000   0.00204   0.00204   2.04821
    R8        2.03698   0.00441   0.00000   0.00285   0.00285   2.03983
    R9        3.54082  -0.02688   0.00000  -0.18523  -0.18438   3.35645
   R10        3.85881  -0.00570   0.00000  -0.02939  -0.02912   3.82969
    A1        2.17549  -0.00185   0.00000  -0.01051  -0.01116   2.16433
    A2        2.09350   0.00032   0.00000   0.01041   0.01148   2.10499
    A3        1.34946  -0.00298   0.00000  -0.02462  -0.02637   1.32310
    A4        1.94393   0.00274   0.00000   0.00644   0.00603   1.94996
    A5        2.56186   0.00353   0.00000   0.02784   0.02847   2.59033
    A6        1.62325  -0.00063   0.00000   0.01997   0.01966   1.64291
    A7        1.89778   0.00527   0.00000   0.03121   0.03137   1.92915
    A8        2.10818   0.00036   0.00000  -0.00031  -0.00036   2.10782
    A9        2.13151  -0.00156   0.00000  -0.00313  -0.00312   2.12839
   A10        2.03895   0.00108   0.00000   0.00231   0.00229   2.04124
   A11        1.29959   0.00824   0.00000   0.06782   0.07016   1.36975
   A12        1.24015   0.00079   0.00000  -0.01261  -0.01363   1.22652
   A13        1.23044   0.00362   0.00000   0.02102   0.02079   1.25123
   A14        3.52103   0.00464   0.00000   0.05118   0.05103   3.57206
   A15        3.09030  -0.00034   0.00000  -0.00532  -0.00504   3.08526
    D1        0.12826  -0.00024   0.00000  -0.00396  -0.00394   0.12432
    D2        2.84126   0.00394   0.00000   0.01626   0.01663   2.85789
    D3       -0.83580   0.00636   0.00000   0.03867   0.03918  -0.79662
    D4        2.33806  -0.00233   0.00000   0.00008  -0.00016   2.33790
    D5       -0.87421  -0.00333   0.00000  -0.01093  -0.01117  -0.88538
    D6       -1.19619   0.00172   0.00000   0.02308   0.02296  -1.17324
    D7        1.87472   0.00072   0.00000   0.01207   0.01195   1.88667
    D8        1.40041   0.00463   0.00000   0.04753   0.04803   1.44844
    D9       -1.81186   0.00363   0.00000   0.03652   0.03702  -1.77484
   D10        0.88283  -0.00375   0.00000  -0.04757  -0.04767   0.83515
   D11        3.08526  -0.00530   0.00000  -0.04586  -0.04654   3.03872
   D12        2.12943  -0.00346   0.00000  -0.00570  -0.00583   2.12360
   D13       -0.90667  -0.00214   0.00000   0.00721   0.00707  -0.89960
   D14        1.02358  -0.00132   0.00000  -0.00838  -0.00812   1.01546
   D15       -2.06673  -0.00098   0.00000  -0.00306  -0.00308  -2.06980
   D16       -0.60056  -0.00099   0.00000   0.00065   0.00024  -0.60032
   D17       -1.15223  -0.00112   0.00000  -0.00025   0.00029  -1.15194
         Item               Value     Threshold  Converged?
 Maximum Force            0.026879     0.000450     NO 
 RMS     Force            0.006150     0.000300     NO 
 Maximum Displacement     0.142520     0.001800     NO 
 RMS     Displacement     0.033019     0.001200     NO 
 Predicted change in Energy=-1.174470D-02
 GradGradGradGradGradGradGradGradGradGradGradGradGradGradGradGradGradGrad

                          Input orientation:                          
 ---------------------------------------------------------------------
 Center     Atomic      Atomic             Coordinates (Angstroms)
 Number     Number       Type             X           Y           Z
 ---------------------------------------------------------------------
      1          6           0       -2.489619    0.485576    1.285886
      2          6           0       -1.195339    0.156691    1.377920
      3          6           0        0.073094    0.171024    1.012196
      4          1           0       -1.450743   -1.002898    2.647334
      5          1           0       -3.249714    0.136195    1.964447
      6          1           0       -2.796008    1.398531    0.771166
      7          1           0       -2.495931   -1.646429    1.363520
      8          1           0        0.356906   -0.036004   -0.013158
      9          1           0        0.872956    0.279987    1.728800
 ---------------------------------------------------------------------
                    Distance matrix (angstroms):
                    1          2          3          4          5
     1  C    0.000000
     2  C    1.338580   0.000000
     3  C    2.596410   1.320183   0.000000
     4  H    2.269000   1.738185   2.524648   0.000000
     5  H    1.077152   2.136560   3.456739   2.236105   0.000000
     6  H    1.091924   2.114818   3.129954   3.331157   1.795345
     7  H    2.133427   2.223283   3.166458   1.776155   2.026585
     8  H    3.172107   2.093250   1.083864   3.358674   4.116828
     9  H    3.397845   2.101467   1.079432   2.808750   4.131902
                    6          7          8          9
     6  H    0.000000
     7  H    3.116522   0.000000
     8  H    3.551608   3.553504   0.000000
     9  H    3.953416   3.897937   1.844065   0.000000
 Stoichiometry    C3H6
 Framework group  C1[X(C3H6)]
 Deg. of freedom    21
 Full point group                 C1      NOp   1
 Largest Abelian subgroup         C1      NOp   1
 Largest concise Abelian subgroup C1      NOp   1
                         Standard orientation:                         
 ---------------------------------------------------------------------
 Center     Atomic      Atomic             Coordinates (Angstroms)
 Number     Number       Type             X           Y           Z
 ---------------------------------------------------------------------
      1          6           0       -1.227307   -0.295858   -0.005416
      2          6           0        0.058309    0.066155   -0.094484
      3          6           0        1.361788   -0.103908    0.027600
      4          1           0       -0.304200    1.710439   -0.526000
      5          1           0       -2.052189    0.336248   -0.288732
      6          1           0       -1.508899   -1.350844   -0.002691
      7          1           0       -1.133847    1.562912    1.037538
      8          1           0        1.790365   -0.454577    0.959327
      9          1           0        2.052027    0.197486   -0.745643
 ---------------------------------------------------------------------
 Rotational constants (GHZ):          42.9933955           8.5906403           7.8362809
 Standard basis: 6-31G(d,p) (6D, 7F)
 There are    75 symmetry adapted cartesian basis functions of A   symmetry.
 There are    75 symmetry adapted basis functions of A   symmetry.
    75 basis functions,   126 primitive gaussians,    75 cartesian basis functions
    12 alpha electrons       12 beta electrons
       nuclear repulsion energy        68.8875406539 Hartrees.
 NAtoms=    9 NActive=    9 NUniq=    9 SFac= 1.00D+00 NAtFMM=   60 NAOKFM=F Big=F
 Integral buffers will be    131072 words long.
 Raffenetti 2 integral format.
 Two-electron integral symmetry is turned on.
 One-electron integrals computed using PRISM.
 NBasis=    75 RedAO= T EigKep=  2.33D-03  NBF=    75
 NBsUse=    75 1.00D-06 EigRej= -1.00D+00 NBFU=    75
 Initial guess from the checkpoint file:  "/scratch/brown/zhao922/pyGSM/new-benchmarking/R1-3/TS-folder/Gau-119427.chk"
 B after Tr=     0.000000   -0.000000    0.000000
         Rot=    0.999990    0.004407    0.000370    0.000009 Ang=   0.51 deg.
 ExpMin= 1.61D-01 ExpMax= 3.05D+03 ExpMxC= 4.57D+02 IAcc=3 IRadAn=         5 AccDes= 0.00D+00
 Harris functional with IExCor=  402 and IRadAn=       5 diagonalized for initial guess.
 HarFok:  IExCor=  402 AccDes= 0.00D+00 IRadAn=         5 IDoV= 1 UseB2=F ITyADJ=14
 ICtDFT=  3500011 ScaDFX=  1.000000  1.000000  1.000000  1.000000
 FoFCou: FMM=F IPFlag=           0 FMFlag=      100000 FMFlg1=           0
         NFxFlg=           0 DoJE=T BraDBF=F KetDBF=T FulRan=T
         wScrn=  0.000000 ICntrl=       500 IOpCl=  0 I1Cent=   200000004 NGrid=           0
         NMat0=    1 NMatS0=      1 NMatT0=    0 NMatD0=    1 NMtDS0=    0 NMtDT0=    0
 Petite list used in FoFCou.
 Keep R1 ints in memory in canonical form, NReq=25608259.
 Requested convergence on RMS density matrix=1.00D-08 within 128 cycles.
 Requested convergence on MAX density matrix=1.00D-06.
 Requested convergence on             energy=1.00D-06.
 No special actions if energy rises.
 Integral accuracy reduced to 1.0D-05 until final iterations.
 Initial convergence to 1.0D-05 achieved.  Increase integral accuracy.
 SCF Done:  E(RB3LYP) =  -117.673572382     A.U. after   13 cycles
            NFock= 13  Conv=0.41D-08     -V/T= 2.0110
 DoSCS=F DFT=T ScalE2(SS,OS)=  1.000000  1.000000
 Range of M.O.s used for correlation:     1    75
 NBasis=    75 NAE=    12 NBE=    12 NFC=     0 NFV=     0
 NROrb=     75 NOA=    12 NOB=    12 NVA=    63 NVB=    63
 Symmetrizing basis deriv contribution to polar:
 IMax=3 JMax=2 DiffMx= 0.00D+00
 G2DrvN: will do    10 centers at a time, making    1 passes.
 Calling FoFCou, ICntrl=  3107 FMM=F I1Cent=   0 AccDes= 0.00D+00.
 End of G2Drv F.D. properties file   721 does not exist.
 End of G2Drv F.D. properties file   722 does not exist.
 End of G2Drv F.D. properties file   788 does not exist.
          IDoAtm=111111111
          Differentiating once with respect to electric field.
                with respect to dipole field.
          Differentiating once with respect to nuclear coordinates.
 Keep R1 ints in memory in canonical form, NReq=25532604.
          There are    30 degrees of freedom in the 1st order CPHF.  IDoFFX=6 NUNeed=     3.
     27 vectors produced by pass  0 Test12= 2.52D-15 3.33D-09 XBig12= 1.53D+02 9.78D+00.
 AX will form    27 AO Fock derivatives at one time.
     27 vectors produced by pass  1 Test12= 2.52D-15 3.33D-09 XBig12= 1.54D+01 1.02D+00.
     27 vectors produced by pass  2 Test12= 2.52D-15 3.33D-09 XBig12= 1.34D-01 8.24D-02.
     27 vectors produced by pass  3 Test12= 2.52D-15 3.33D-09 XBig12= 1.87D-04 2.82D-03.
     27 vectors produced by pass  4 Test12= 2.52D-15 3.33D-09 XBig12= 9.98D-08 6.70D-05.
     10 vectors produced by pass  5 Test12= 2.52D-15 3.33D-09 XBig12= 4.19D-11 1.05D-06.
      3 vectors produced by pass  6 Test12= 2.52D-15 3.33D-09 XBig12= 1.52D-14 2.88D-08.
 InvSVY:  IOpt=1 It=  1 EMax= 5.33D-15
 Solved reduced A of dimension   148 with    30 vectors.
 Isotropic polarizability for W=    0.000000       47.35 Bohr**3.
 End of Minotr F.D. properties file   721 does not exist.
 End of Minotr F.D. properties file   722 does not exist.
 End of Minotr F.D. properties file   788 does not exist.
 Calling FoFJK, ICntrl=    100127 FMM=F ISym2X=0 I1Cent= 0 IOpClX= 0 NMat=1 NMatS=1 NMatT=0.
 ***** Axes restored to original set *****
 -------------------------------------------------------------------
 Center     Atomic                   Forces (Hartrees/Bohr)
 Number     Number              X              Y              Z
 -------------------------------------------------------------------
      1        6          -0.013329038    0.011024219    0.001300159
      2        6          -0.002040827   -0.017034553    0.028824509
      3        6           0.004874381    0.001205865   -0.007628747
      4        1          -0.012869938    0.000267871   -0.042567922
      5        1           0.001129425   -0.009402749   -0.002891314
      6        1           0.004935547    0.000818738   -0.005960696
      7        1           0.014796552    0.012437998    0.028625638
      8        1           0.000892986    0.000720284   -0.002913004
      9        1           0.001610913   -0.000037672    0.003211378
 -------------------------------------------------------------------
 Cartesian Forces:  Max     0.042567922 RMS     0.013418635
 FormGI is forming the generalized inverse of G from B-inverse, IUseBI=4.

 GradGradGradGradGradGradGradGradGradGradGradGradGradGradGradGradGradGrad
 Berny optimization.
 Internal  Forces:  Max     0.027255951 RMS     0.006327576
 Search for a saddle point.
 Step number   4 out of a maximum of  100
 All quantities printed in internal units (Hartrees-Bohrs-Radians)
 Swapping is turned off.
 Second derivative matrix not updated -- analytic derivatives used.
 ITU=  0  0  0  0
     Eigenvalues ---   -0.06677  -0.01187  -0.00180   0.00922   0.01069
     Eigenvalues ---    0.01464   0.01783   0.02042   0.03565   0.05247
     Eigenvalues ---    0.06818   0.07761   0.10018   0.10067   0.10718
     Eigenvalues ---    0.34541   0.35545   0.36475   0.37581   0.50297
     Eigenvalues ---    0.64556
 Eigenvectors required to have negative eigenvalues:
                          R6        R9        R4        A14       D10
   1                    0.58292  -0.56067   0.24008  -0.19771   0.16941
                          D3        D13       D4        A5        D12
   1                    0.16650  -0.13601  -0.13426   0.12491  -0.12076
 RFO step:  Lambda0=2.011265377D-04 Lambda=-4.35953619D-02.
 Linear search not attempted -- option 19 set.
 Maximum step size (   0.300) exceeded in Quadratic search.
    -- Step size scaled by   0.281
 Iteration  1 RMS(Cart)=  0.03392540 RMS(Int)=  0.00160016
 Iteration  2 RMS(Cart)=  0.00113082 RMS(Int)=  0.00077596
 Iteration  3 RMS(Cart)=  0.00000079 RMS(Int)=  0.00077596
 Variable       Old X    -DE/DX   Delta X   Delta X   Delta X     New X
                                 (Linear)    (Quad)   (Total)
    R1        2.52955   0.00547   0.00000   0.00462   0.00423   2.53378
    R2        2.03552   0.00098   0.00000   0.00152   0.00165   2.03717
    R3        2.06344   0.00211   0.00000   0.00026   0.00026   2.06370
    R4        4.03159   0.00138   0.00000   0.02681   0.02484   4.05644
    R5        2.49478   0.00910   0.00000   0.01320   0.01320   2.50798
    R6        3.28469  -0.01966   0.00000  -0.20040  -0.19915   3.08555
    R7        2.04821   0.00285   0.00000   0.00137   0.00137   2.04958
    R8        2.03983   0.00332   0.00000   0.00230   0.00230   2.04213
    R9        3.35645  -0.02726   0.00000  -0.18921  -0.18825   3.16820
   R10        3.82969  -0.00516   0.00000  -0.02003  -0.01956   3.81013
    A1        2.16433  -0.00201   0.00000  -0.01205  -0.01294   2.15139
    A2        2.10499   0.00097   0.00000   0.01316   0.01441   2.11940
    A3        1.32310  -0.00368   0.00000  -0.03025  -0.03221   1.29089
    A4        1.94996   0.00220   0.00000   0.00614   0.00571   1.95567
    A5        2.59033   0.00400   0.00000   0.03539   0.03609   2.62642
    A6        1.64291   0.00020   0.00000   0.02048   0.02035   1.66326
    A7        1.92915   0.00504   0.00000   0.02694   0.02700   1.95616
    A8        2.10782   0.00027   0.00000   0.00009   0.00003   2.10786
    A9        2.12839  -0.00126   0.00000  -0.00290  -0.00291   2.12548
   A10        2.04124   0.00085   0.00000   0.00152   0.00149   2.04273
   A11        1.36975   0.00942   0.00000   0.07724   0.07992   1.44967
   A12        1.22652  -0.00008   0.00000  -0.01667  -0.01794   1.20858
   A13        1.25123   0.00358   0.00000   0.02069   0.02024   1.27147
   A14        3.57206   0.00524   0.00000   0.04741   0.04736   3.61942
   A15        3.08526  -0.00030   0.00000  -0.00082  -0.00053   3.08473
    D1        0.12432  -0.00044   0.00000  -0.00977  -0.00978   0.11454
    D2        2.85789   0.00362   0.00000   0.01398   0.01427   2.87216
    D3       -0.79662   0.00647   0.00000   0.04341   0.04392  -0.75270
    D4        2.33790  -0.00194   0.00000  -0.00687  -0.00721   2.33069
    D5       -0.88538  -0.00309   0.00000  -0.01727  -0.01763  -0.90301
    D6       -1.17324   0.00202   0.00000   0.01824   0.01816  -1.15507
    D7        1.88667   0.00087   0.00000   0.00783   0.00774   1.89441
    D8        1.44844   0.00545   0.00000   0.05104   0.05159   1.50002
    D9       -1.77484   0.00431   0.00000   0.04064   0.04116  -1.73368
   D10        0.83515  -0.00462   0.00000  -0.04705  -0.04717   0.78798
   D11        3.03872  -0.00580   0.00000  -0.04367  -0.04440   2.99432
   D12        2.12360  -0.00290   0.00000  -0.00643  -0.00655   2.11705
   D13       -0.89960  -0.00144   0.00000   0.00681   0.00673  -0.89287
   D14        1.01546  -0.00115   0.00000  -0.00454  -0.00437   1.01109
   D15       -2.06980  -0.00085   0.00000  -0.00372  -0.00384  -2.07364
   D16       -0.60032  -0.00076   0.00000   0.00215   0.00155  -0.59877
   D17       -1.15194  -0.00062   0.00000   0.00565   0.00629  -1.14565
         Item               Value     Threshold  Converged?
 Maximum Force            0.027256     0.000450     NO 
 RMS     Force            0.006328     0.000300     NO 
 Maximum Displacement     0.145841     0.001800     NO 
 RMS     Displacement     0.034036     0.001200     NO 
 Predicted change in Energy=-1.273838D-02
 GradGradGradGradGradGradGradGradGradGradGradGradGradGradGradGradGradGrad

                          Input orientation:                          
 ---------------------------------------------------------------------
 Center     Atomic      Atomic             Coordinates (Angstroms)
 Number     Number       Type             X           Y           Z
 ---------------------------------------------------------------------
      1          6           0       -2.487671    0.488973    1.286844
      2          6           0       -1.200599    0.131046    1.401405
      3          6           0        0.069810    0.169650    1.019386
      4          1           0       -1.456564   -0.980053    2.570158
      5          1           0       -3.262217    0.129492    1.944863
      6          1           0       -2.779874    1.407086    0.772754
      7          1           0       -2.477777   -1.653221    1.423532
      8          1           0        0.344467   -0.014424   -0.013578
      9          1           0        0.876029    0.264125    1.732747
 ---------------------------------------------------------------------
                    Distance matrix (angstroms):
                    1          2          3          4          5
     1  C    0.000000
     2  C    1.340817   0.000000
     3  C    2.591180   1.327166   0.000000
     4  H    2.206380   1.632801   2.461001   0.000000
     5  H    1.078025   2.132046   3.458400   2.209631   0.000000
     6  H    1.092064   2.125462   3.116533   3.268064   1.799650
     7  H    2.146573   2.194375   3.158543   1.676539   2.016234
     8  H    3.156819   2.100135   1.084589   3.294213   4.106625
     9  H    3.400568   2.107102   1.080647   2.773125   4.145865
                    6          7          8          9
     6  H    0.000000
     7  H    3.143288   0.000000
     8  H    3.521437   3.565950   0.000000
     9  H    3.948870   3.875544   1.846564   0.000000
 Stoichiometry    C3H6
 Framework group  C1[X(C3H6)]
 Deg. of freedom    21
 Full point group                 C1      NOp   1
 Largest Abelian subgroup         C1      NOp   1
 Largest concise Abelian subgroup C1      NOp   1
                         Standard orientation:                         
 ---------------------------------------------------------------------
 Center     Atomic      Atomic             Coordinates (Angstroms)
 Number     Number       Type             X           Y           Z
 ---------------------------------------------------------------------
      1          6           0       -1.224392   -0.303041   -0.002773
      2          6           0        0.053553    0.091289   -0.098432
      3          6           0        1.359369   -0.109485    0.027677
      4          1           0       -0.294756    1.638135   -0.488289
      5          1           0       -2.058691    0.325487   -0.269297
      6          1           0       -1.494728   -1.361072    0.006749
      7          1           0       -1.118547    1.606735    0.971563
      8          1           0        1.777245   -0.474191    0.959719
      9          1           0        2.058297    0.192324   -0.739270
 ---------------------------------------------------------------------
 Rotational constants (GHZ):          43.4749904           8.6539325           7.8598809
 Standard basis: 6-31G(d,p) (6D, 7F)
 There are    75 symmetry adapted cartesian basis functions of A   symmetry.
 There are    75 symmetry adapted basis functions of A   symmetry.
    75 basis functions,   126 primitive gaussians,    75 cartesian basis functions
    12 alpha electrons       12 beta electrons
       nuclear repulsion energy        69.0211324302 Hartrees.
 NAtoms=    9 NActive=    9 NUniq=    9 SFac= 1.00D+00 NAtFMM=   60 NAOKFM=F Big=F
 Integral buffers will be    131072 words long.
 Raffenetti 2 integral format.
 Two-electron integral symmetry is turned on.
 One-electron integrals computed using PRISM.
 NBasis=    75 RedAO= T EigKep=  2.51D-03  NBF=    75
 NBsUse=    75 1.00D-06 EigRej= -1.00D+00 NBFU=    75
 Initial guess from the checkpoint file:  "/scratch/brown/zhao922/pyGSM/new-benchmarking/R1-3/TS-folder/Gau-119427.chk"
 B after Tr=     0.000000    0.000000   -0.000000
         Rot=    0.999988    0.004839    0.000066    0.000461 Ang=   0.56 deg.
 ExpMin= 1.61D-01 ExpMax= 3.05D+03 ExpMxC= 4.57D+02 IAcc=3 IRadAn=         5 AccDes= 0.00D+00
 Harris functional with IExCor=  402 and IRadAn=       5 diagonalized for initial guess.
 HarFok:  IExCor=  402 AccDes= 0.00D+00 IRadAn=         5 IDoV= 1 UseB2=F ITyADJ=14
 ICtDFT=  3500011 ScaDFX=  1.000000  1.000000  1.000000  1.000000
 FoFCou: FMM=F IPFlag=           0 FMFlag=      100000 FMFlg1=           0
         NFxFlg=           0 DoJE=T BraDBF=F KetDBF=T FulRan=T
         wScrn=  0.000000 ICntrl=       500 IOpCl=  0 I1Cent=   200000004 NGrid=           0
         NMat0=    1 NMatS0=      1 NMatT0=    0 NMatD0=    1 NMtDS0=    0 NMtDT0=    0
 Petite list used in FoFCou.
 Keep R1 ints in memory in canonical form, NReq=25608259.
 Requested convergence on RMS density matrix=1.00D-08 within 128 cycles.
 Requested convergence on MAX density matrix=1.00D-06.
 Requested convergence on             energy=1.00D-06.
 No special actions if energy rises.
 Integral accuracy reduced to 1.0D-05 until final iterations.
 Initial convergence to 1.0D-05 achieved.  Increase integral accuracy.
 SCF Done:  E(RB3LYP) =  -117.686251438     A.U. after   13 cycles
            NFock= 13  Conv=0.32D-08     -V/T= 2.0111
 DoSCS=F DFT=T ScalE2(SS,OS)=  1.000000  1.000000
 Range of M.O.s used for correlation:     1    75
 NBasis=    75 NAE=    12 NBE=    12 NFC=     0 NFV=     0
 NROrb=     75 NOA=    12 NOB=    12 NVA=    63 NVB=    63
 Symmetrizing basis deriv contribution to polar:
 IMax=3 JMax=2 DiffMx= 0.00D+00
 G2DrvN: will do    10 centers at a time, making    1 passes.
 Calling FoFCou, ICntrl=  3107 FMM=F I1Cent=   0 AccDes= 0.00D+00.
 End of G2Drv F.D. properties file   721 does not exist.
 End of G2Drv F.D. properties file   722 does not exist.
 End of G2Drv F.D. properties file   788 does not exist.
          IDoAtm=111111111
          Differentiating once with respect to electric field.
                with respect to dipole field.
          Differentiating once with respect to nuclear coordinates.
 Keep R1 ints in memory in canonical form, NReq=25532604.
          There are    30 degrees of freedom in the 1st order CPHF.  IDoFFX=6 NUNeed=     3.
     27 vectors produced by pass  0 Test12= 2.52D-15 3.33D-09 XBig12= 1.62D+02 1.02D+01.
 AX will form    27 AO Fock derivatives at one time.
     27 vectors produced by pass  1 Test12= 2.52D-15 3.33D-09 XBig12= 1.64D+01 1.00D+00.
     27 vectors produced by pass  2 Test12= 2.52D-15 3.33D-09 XBig12= 1.46D-01 9.08D-02.
     27 vectors produced by pass  3 Test12= 2.52D-15 3.33D-09 XBig12= 2.04D-04 2.67D-03.
     27 vectors produced by pass  4 Test12= 2.52D-15 3.33D-09 XBig12= 1.11D-07 6.65D-05.
      9 vectors produced by pass  5 Test12= 2.52D-15 3.33D-09 XBig12= 4.76D-11 1.16D-06.
      3 vectors produced by pass  6 Test12= 2.52D-15 3.33D-09 XBig12= 1.62D-14 2.14D-08.
 InvSVY:  IOpt=1 It=  1 EMax= 7.11D-15
 Solved reduced A of dimension   147 with    30 vectors.
 Isotropic polarizability for W=    0.000000       46.87 Bohr**3.
 End of Minotr F.D. properties file   721 does not exist.
 End of Minotr F.D. properties file   722 does not exist.
 End of Minotr F.D. properties file   788 does not exist.
 Calling FoFJK, ICntrl=    100127 FMM=F ISym2X=0 I1Cent= 0 IOpClX= 0 NMat=1 NMatS=1 NMatT=0.
 ***** Axes restored to original set *****
 -------------------------------------------------------------------
 Center     Atomic                   Forces (Hartrees/Bohr)
 Number     Number              X              Y              Z
 -------------------------------------------------------------------
      1        6          -0.012696865    0.012147105    0.000653839
      2        6          -0.002565772   -0.019397931    0.030209558
      3        6           0.003706707    0.001679225   -0.007093099
      4        1          -0.012823016    0.000979290   -0.044207008
      5        1           0.001044124   -0.008710075   -0.002869377
      6        1           0.005473229    0.000410243   -0.005570675
      7        1           0.015915347    0.012228238    0.028509946
      8        1           0.000821115    0.001613924   -0.002289484
      9        1           0.001125131   -0.000950019    0.002656301
 -------------------------------------------------------------------
 Cartesian Forces:  Max     0.044207008 RMS     0.013838923
 FormGI is forming the generalized inverse of G from B-inverse, IUseBI=4.

 GradGradGradGradGradGradGradGradGradGradGradGradGradGradGradGradGradGrad
 Berny optimization.
 Internal  Forces:  Max     0.027562479 RMS     0.006517773
 Search for a saddle point.
 Step number   5 out of a maximum of  100
 All quantities printed in internal units (Hartrees-Bohrs-Radians)
 Swapping is turned off.
 Second derivative matrix not updated -- analytic derivatives used.
 ITU=  0  0  0  0  0
     Eigenvalues ---   -0.07130  -0.00830   0.00023   0.00910   0.01072
     Eigenvalues ---    0.01439   0.01736   0.02079   0.03428   0.05250
     Eigenvalues ---    0.06900   0.07783   0.10067   0.10275   0.10896
     Eigenvalues ---    0.34558   0.35416   0.36338   0.37325   0.49716
     Eigenvalues ---    0.62639
 Eigenvectors required to have negative eigenvalues:
                          R6        R9        R4        A14       D10
   1                    0.58108  -0.57860   0.21888  -0.19923   0.16879
                          D3        D13       D4        A5        A6
   1                    0.16609  -0.13533  -0.12711   0.12457  -0.12186
 RFO step:  Lambda0=1.420745641D-04 Lambda=-4.34399829D-02.
 Linear search not attempted -- option 19 set.
 Maximum step size (   0.300) exceeded in Quadratic search.
    -- Step size scaled by   0.273
 Iteration  1 RMS(Cart)=  0.03538127 RMS(Int)=  0.00193831
 Iteration  2 RMS(Cart)=  0.00134645 RMS(Int)=  0.00089895
[...]
 Rotational      0.151232D+05          4.179642          9.623982
 ***** Axes restored to original set *****
 -------------------------------------------------------------------
 Center     Atomic                   Forces (Hartrees/Bohr)
 Number     Number              X              Y              Z
 -------------------------------------------------------------------
      1        6          -0.000000430    0.000000052   -0.000000413
      2        6           0.000000553    0.000000636   -0.000000387
      3        6           0.000000060   -0.000000218   -0.000000026
      4        1          -0.000000073   -0.000000226    0.000000918
      5        1          -0.000000110    0.000000284    0.000000043
      6        1           0.000000003   -0.000000341   -0.000000606
      7        1          -0.000000001    0.000000307    0.000000698
      8        1          -0.000000012   -0.000000596   -0.000000196
      9        1           0.000000010    0.000000101   -0.000000031
 -------------------------------------------------------------------
 Cartesian Forces:  Max     0.000000918 RMS     0.000000372
 FormGI is forming the generalized inverse of G from B-inverse, IUseBI=4.

 GradGradGradGradGradGradGradGradGradGradGradGradGradGradGradGradGradGrad
 Berny optimization.
 Internal  Forces:  Max     0.000000610 RMS     0.000000135
 Search for a saddle point.
 Step number   1 out of a maximum of    2
 All quantities printed in internal units (Hartrees-Bohrs-Radians)
 Swapping is turned off.
 Second derivative matrix not updated -- analytic derivatives used.
 ITU=  0
     Eigenvalues ---   -0.04444   0.00450   0.00747   0.01180   0.01360
     Eigenvalues ---    0.01608   0.01907   0.02443   0.05111   0.05412
     Eigenvalues ---    0.08727   0.10267   0.11198   0.12363   0.15057
     Eigenvalues ---    0.34112   0.35556   0.35993   0.36573   0.40528
     Eigenvalues ---    0.56105
 Eigenvectors required to have negative eigenvalues:
                          R9        R4        R6        A11       D4
   1                   -0.66299   0.32379   0.25670   0.24446  -0.22210
                          A5        D6        D5        D3        D7
   1                    0.21519  -0.18626  -0.18021   0.16017  -0.14437
 Angle between quadratic step and forces=  71.56 degrees.
 Linear search not attempted -- option 19 set.
 Iteration  1 RMS(Cart)=  0.00000414 RMS(Int)=  0.00000000
 Iteration  2 RMS(Cart)=  0.00000000 RMS(Int)=  0.00000000
 Variable       Old X    -DE/DX   Delta X   Delta X   Delta X     New X
                                 (Linear)    (Quad)   (Total)
    R1        2.59789   0.00000   0.00000   0.00000   0.00000   2.59790
    R2        2.04605   0.00000   0.00000   0.00000   0.00000   2.04605
    R3        2.05949   0.00000   0.00000   0.00000   0.00000   2.05949
    R4        3.87003   0.00000   0.00000  -0.00002  -0.00002   3.87001
    R5        2.56180   0.00000   0.00000  -0.00000  -0.00000   2.56180
    R6        2.24872   0.00000   0.00000   0.00001   0.00001   2.24873
    R7        2.05297  -0.00000   0.00000   0.00000   0.00000   2.05297
    R8        2.04924  -0.00000   0.00000  -0.00000  -0.00000   2.04924
    R9        2.36897   0.00000   0.00000  -0.00001  -0.00001   2.36896
   R10        3.51538   0.00000   0.00000  -0.00001  -0.00001   3.51537
    A1        2.08475   0.00000   0.00000   0.00000   0.00000   2.08475
    A2        2.13024  -0.00000   0.00000  -0.00000  -0.00000   2.13024
    A3        1.15647   0.00000   0.00000   0.00000   0.00000   1.15647
    A4        2.05393   0.00000   0.00000  -0.00000  -0.00000   2.05392
    A5        2.69535   0.00000   0.00000  -0.00000  -0.00000   2.69535
    A6        1.79825  -0.00000   0.00000  -0.00000  -0.00000   1.79825
    A7        2.11607  -0.00000   0.00000  -0.00000  -0.00000   2.11607
    A8        2.11892  -0.00000   0.00000  -0.00000  -0.00000   2.11892
    A9        2.11350   0.00000   0.00000   0.00000   0.00000   2.11350
   A10        2.04390  -0.00000   0.00000   0.00000   0.00000   2.04390
   A11        1.85257  -0.00000   0.00000  -0.00001  -0.00001   1.85256
   A12        1.22884   0.00000   0.00000   0.00001   0.00001   1.22885
   A13        1.52971   0.00000   0.00000   0.00001   0.00001   1.52972
   A14        3.91433  -0.00000   0.00000  -0.00001  -0.00001   3.91432
   A15        2.92720  -0.00000   0.00000  -0.00000  -0.00000   2.92720
    D1        0.23758   0.00000   0.00000   0.00001   0.00001   0.23759
    D2       -3.08898   0.00000   0.00000   0.00000   0.00000  -3.08897
    D3       -0.42665   0.00000   0.00000   0.00000   0.00000  -0.42665
    D4        2.68335   0.00000   0.00000   0.00001   0.00001   2.68335
    D5       -0.55789   0.00000   0.00000   0.00001   0.00001  -0.55788
    D6       -0.60639   0.00000   0.00000   0.00000   0.00000  -0.60639
    D7        2.43556   0.00000   0.00000   0.00000   0.00000   2.43556
    D8        2.09078   0.00000   0.00000  -0.00000  -0.00000   2.09078
    D9       -1.15046   0.00000   0.00000   0.00000   0.00000  -1.15046
   D10        0.41832   0.00000   0.00000   0.00000   0.00000   0.41832
   D11        2.42713   0.00000   0.00000   0.00000   0.00000   2.42713
   D12        2.34614   0.00000   0.00000  -0.00000  -0.00000   2.34613
   D13       -0.66616  -0.00000   0.00000  -0.00000  -0.00000  -0.66616
   D14        0.70004  -0.00000   0.00000  -0.00000  -0.00000   0.70003
   D15       -2.22716  -0.00000   0.00000   0.00000   0.00000  -2.22716
   D16       -0.46366  -0.00000   0.00000   0.00000   0.00000  -0.46366
   D17       -0.93890  -0.00000   0.00000  -0.00000  -0.00000  -0.93890
         Item               Value     Threshold  Converged?
 Maximum Force            0.000001     0.000450     YES
 RMS     Force            0.000000     0.000300     YES
 Maximum Displacement     0.000017     0.001800     YES
 RMS     Displacement     0.000004     0.001200     YES
 Predicted change in Energy=-5.423597D-12
 Optimization completed.
    -- Stationary point found.
                           ----------------------------
                           !   Optimized Parameters   !
                           ! (Angstroms and Degrees)  !
 --------------------------                            --------------------------
 ! Name  Definition              Value          Derivative Info.                !
 --------------------------------------------------------------------------------
 ! R1    R(1,2)                  1.3747         -DE/DX =    0.0                 !
 ! R2    R(1,5)                  1.0827         -DE/DX =    0.0                 !
 ! R3    R(1,6)                  1.0898         -DE/DX =    0.0                 !
 ! R4    R(1,7)                  2.0479         -DE/DX =    0.0                 !
 ! R5    R(2,3)                  1.3556         -DE/DX =    0.0                 !
 ! R6    R(2,4)                  1.19           -DE/DX =    0.0                 !
 ! R7    R(3,8)                  1.0864         -DE/DX =    0.0                 !
 ! R8    R(3,9)                  1.0844         -DE/DX =    0.0                 !
 ! R9    R(4,7)                  1.2536         -DE/DX =    0.0                 !
 ! R10   R(5,7)                  1.8603         -DE/DX =    0.0                 !
 ! A1    A(2,1,5)              119.4474         -DE/DX =    0.0                 !
 ! A2    A(2,1,6)              122.0538         -DE/DX =    0.0                 !
 ! A3    A(2,1,7)               66.2609         -DE/DX =    0.0                 !
 ! A4    A(5,1,6)              117.6812         -DE/DX =    0.0                 !
 ! A5    A(6,1,7)              154.4324         -DE/DX =    0.0                 !
 ! A6    A(1,2,4)              103.0324         -DE/DX =    0.0                 !
 ! A7    A(3,2,4)              121.242          -DE/DX =    0.0                 !
 ! A8    A(2,3,8)              121.4053         -DE/DX =    0.0                 !
 ! A9    A(2,3,9)              121.0944         -DE/DX =    0.0                 !
 ! A10   A(8,3,9)              117.1069         -DE/DX =    0.0                 !
 ! A11   A(2,4,7)              106.1443         -DE/DX =    0.0                 !
 ! A12   A(1,7,4)               70.4073         -DE/DX =    0.0                 !
 ! A13   A(4,7,5)               87.6462         -DE/DX =    0.0                 !
 ! A14   L(1,2,3,4,-1)         224.2743         -DE/DX =    0.0                 !
 ! A15   L(1,2,3,4,-2)         167.7163         -DE/DX =    0.0                 !
 ! D1    D(5,1,2,4)             13.6121         -DE/DX =    0.0                 !
 ! D2    D(6,1,2,4)           -176.9853         -DE/DX =    0.0                 !
 ! D3    D(7,1,2,4)            -24.4455         -DE/DX =    0.0                 !
 ! D4    D(5,1,3,8)            153.7444         -DE/DX =    0.0                 !
 ! D5    D(5,1,3,9)            -31.9649         -DE/DX =    0.0                 !
 ! D6    D(6,1,3,8)            -34.7436         -DE/DX =    0.0                 !
 ! D7    D(6,1,3,9)            139.5472         -DE/DX =    0.0                 !
 ! D8    D(7,1,3,8)            119.7928         -DE/DX =    0.0                 !
 ! D9    D(7,1,3,9)            -65.9164         -DE/DX =    0.0                 !
 ! D10   D(2,1,7,4)             23.9678         -DE/DX =    0.0                 !
 ! D11   D(6,1,7,4)            139.0645         -DE/DX =    0.0                 !
 ! D12   D(4,2,3,8)            134.4237         -DE/DX =    0.0                 !
 ! D13   D(4,2,3,9)            -38.168          -DE/DX =    0.0                 !
 ! D14   D(1,2,4,7)             40.1092         -DE/DX =    0.0                 !
 ! D15   D(3,2,4,7)           -127.6071         -DE/DX =    0.0                 !
 ! D16   D(2,4,7,1)            -26.566          -DE/DX =    0.0                 !
 ! D17   D(2,4,7,5)            -53.795          -DE/DX =    0.0                 !
 --------------------------------------------------------------------------------
 GradGradGradGradGradGradGradGradGradGradGradGradGradGradGradGradGradGrad


 ----------------------------------------------------------------------

 Electric dipole moment (input orientation):
 (Debye = 10**-18 statcoulomb cm , SI units = C m)
                  (au)            (Debye)         (10**-30 SI)
   Tot        0.398465D+00      0.101280D+01      0.337832D+01
   x         -0.558374D-01     -0.141925D+00     -0.473409D+00
   y          0.386093D+00      0.981350D+00      0.327343D+01
   z         -0.811700D-01     -0.206314D+00     -0.688188D+00

 Dipole polarizability, Alpha (input orientation).
 (esu units = cm**3 , SI units = C**2 m**2 J**-1)
 Alpha(0;0):
               (au)            (10**-24 esu)      (10**-40 SI)
   iso        0.442507D+02      0.655728D+01      0.729596D+01
   aniso      0.447172D+02      0.662641D+01      0.737288D+01
   xx         0.636076D+02      0.942567D+01      0.104875D+02
   yx         0.111291D+02      0.164917D+01      0.183495D+01
   yy         0.422461D+02      0.626023D+01      0.696544D+01
   zx        -0.597689D+01     -0.885684D+00     -0.985456D+00
   zy        -0.129252D+02     -0.191531D+01     -0.213107D+01
   zz         0.268985D+02      0.398594D+01      0.443496D+01

 ----------------------------------------------------------------------

 Dipole orientation:
     6         -4.82093441         -1.99331434          0.99249526
     6         -2.67892882         -2.63111693         -0.33191910
     6         -0.19380513         -2.05756345         -0.09103869
     1         -3.49990245         -3.47953074         -2.24580338
     1         -6.63685165         -2.70070996          0.36932290
     1         -4.73469834         -1.06532840          2.82904278
     1         -5.33537512         -2.10542855         -2.84155235
     1          0.41895171         -0.28522629          0.74443997
     1          1.25228860         -3.24567926         -0.92565702

 Electric dipole moment (dipole orientation):
 (Debye = 10**-18 statcoulomb cm , SI units = C m)
                  (au)            (Debye)         (10**-30 SI)
   Tot        0.398465D+00      0.101280D+01      0.337832D+01
   x          0.000000D+00      0.000000D+00      0.000000D+00
   y          0.000000D+00      0.000000D+00      0.000000D+00
   z          0.398465D+00      0.101280D+01      0.337832D+01

 Dipole polarizability, Alpha (dipole orientation).
 (esu units = cm**3 , SI units = C**2 m**2 J**-1)
 Alpha(0;0):
               (au)            (10**-24 esu)      (10**-40 SI)
   iso        0.442507D+02      0.655728D+01      0.729596D+01
   aniso      0.447172D+02      0.662641D+01      0.737288D+01
   xx         0.671411D+02      0.994929D+01      0.110701D+02
   yx        -0.387948D+00     -0.574880D-01     -0.639640D-01
   yy         0.218434D+02      0.323686D+01      0.360149D+01
   zx         0.101814D+02      0.150872D+01      0.167868D+01
   zy         0.704184D+01      0.104349D+01      0.116104D+01
   zz         0.437676D+02      0.648569D+01      0.721631D+01

 ----------------------------------------------------------------------
 1\1\GINC-BROWN-A120\Freq\RB3LYP\6-31G(d,p)\C3H6\ZHAO922\17-Jul-2020\0\
 \#N Geom=AllCheck Guess=TCheck SCRF=Check GenChk RB3LYP/6-31G(d,p) Fre
 q\\pp_3_2 TS\\0,1\C,-2.464122898,0.4532077237,1.2725712046\C,-1.212830
 868,-0.0237613296,1.5835313991\C,0.028687343,0.1813132805,1.0791946148
 \H,-1.4476174772,-0.955324781,2.2857428259\H,-3.3209514741,0.107643738
 2,1.8371204952\H,-2.6108147941,1.2919942749,0.5923800879\H,-2.44090839
 01,-1.5303432416,1.7815043875\H,0.1799052936,0.4399263582,0.0349333957
 \H,0.9142552649,-0.0219820233,1.6711325893\\Version=ES64L-G16RevB.01\S
 tate=1-A\HF=-117.7348496\RMSD=8.038e-10\RMSF=3.718e-07\ZeroPoint=0.068
 2879\Thermal=0.0723509\Dipole=-0.0558374,0.3860928,-0.08117\DipoleDeri
 v=0.2505043,0.1053291,-0.1241649,0.0557149,0.1910256,-0.2419954,-0.018
 9705,-0.2095915,0.010101,0.1044133,0.1165503,-0.1063086,0.2833988,-0.0
 102548,-0.1543768,-0.2341847,0.1676507,-0.0975289,-0.135172,-0.0992107
 ,0.0905577,0.0129688,-0.2461877,-0.1485402,0.2142459,-0.1943133,0.1028
 639,0.0482519,0.0504187,0.0543297,-0.0344333,0.1864567,0.0777909,-0.17
 39216,0.0071866,0.0738249,0.0702035,0.0537247,0.0142178,-0.0654696,0.0
 289507,0.1136237,0.0267844,0.0377188,0.0583772,0.0596744,-0.0017487,0.
 0009544,0.0743195,0.0156894,0.1017458,-0.0069082,0.0806627,0.0466091,-
 0.3939493,-0.2559988,0.1305084,-0.3599958,-0.4392783,0.1457766,0.22642
 32,0.0167174,-0.1578534,0.0140279,0.024853,-0.0189721,-0.0385538,0.128
 9015,0.0795143,0.0136428,0.0367546,-0.0406672,-0.0179538,0.0060824,-0.
 0411225,0.0720505,0.1446971,0.0264611,-0.0471114,0.0572139,0.0042734\P
 olar=63.6075942,11.1291372,42.246124,-5.9768926,-12.925154,26.8984856\
 Quadrupole=1.3535809,-1.7356124,0.3820315,-1.5127654,0.0366312,-0.8261
 498\PG=C01 [X(C3H6)]\NImag=1\\0.70081453,-0.11006659,0.39330029,-0.045
 81902,-0.26795889,0.38096895,-0.34910280,0.14065579,-0.04848458,0.8295
 6710,0.12288894,-0.11513384,0.04437579,-0.06654436,0.24232677,-0.06520
 209,0.05301750,-0.08415447,-0.08863066,-0.11408785,0.26365357,-0.04703
 088,-0.01111565,0.00957135,-0.39205345,-0.03878627,0.12605774,0.749746
 30,0.00129388,0.00235492,-0.00482699,-0.02557832,-0.04994057,0.0230749
 5,0.00473063,0.12868232,0.00382437,0.00349776,0.01222853,0.12914481,0.
 02802212,-0.13911915,-0.04653730,-0.14576963,0.59278883,0.00500797,0.0
 2358058,-0.01523550,-0.02919578,0.02592437,-0.02178038,-0.00942993,-0.
 01673840,0.02069890,0.02575215,0.01507058,-0.01289369,0.02328198,-0.00
 579355,-0.05200299,0.02365448,-0.00746303,-0.00884938,0.01017411,-0.03
 694515,0.07678150,0.00442251,0.01877797,-0.01184953,-0.00037236,0.0623
 1049,-0.08023077,0.00540782,0.00819474,-0.00810901,-0.00332453,-0.0826
 9212,0.10899241,-0.23243989,-0.06668037,0.12651792,-0.02509634,-0.0079
 0290,0.01374682,-0.00063961,0.00215002,-0.00320710,-0.00217389,-0.0038
 3863,0.00050999,0.25088696,-0.06092575,-0.05459301,0.06802124,-0.00560
 703,0.00710458,-0.01217551,0.00328193,0.00166127,0.00384862,-0.0047434
 7,-0.00842469,-0.00366250,0.07387923,0.06653168,0.14158684,0.06843598,
 -0.13143117,-0.02568314,0.01216675,0.00102898,0.00331446,0.00116112,0.
 00450597,-0.00731923,-0.00875075,-0.00068764,-0.13437714,-0.06997511,0
 .12697559,-0.06696730,0.02367978,-0.02160178,0.00593960,0.01958704,-0.
 01245456,0.00092361,-0.00030736,-0.00138905,-0.00087655,0.00538317,-0.
 00157649,0.00699734,-0.01561264,0.01492496,0.05655649,0.02522393,-0.21
 606751,0.14067368,0.00247169,-0.01266196,0.01578656,-0.00196270,0.0001
 8307,-0.00379219,0.00905279,0.00793761,0.00450338,0.00266928,-0.003312
 14,0.00508039,-0.03423461,0.21858634,-0.02412928,0.13793531,-0.1594172
 5,0.00840383,-0.00560453,0.01169573,-0.00187217,-0.00059813,-0.0034625
 3,0.00824478,0.01274444,0.00402216,-0.00503399,0.00861052,-0.00271491,
 0.02280453,-0.15972120,0.15406815,-0.00812385,0.00471434,-0.00690318,-
 0.01517001,-0.05410859,0.03563969,-0.00033044,0.00136755,-0.00646005,0
 .01163628,0.03256556,-0.00761774,0.00322093,0.00886106,0.00810917,-0.0
 0243856,-0.00421143,-0.00852351,0.01053488,0.00604239,0.00007146,-0.00
 487249,-0.02174075,-0.02556579,0.00861949,0.00382236,0.00483053,-0.004
 67884,0.00180399,-0.00052102,-0.00871877,-0.00033965,-0.00980340,-0.00
 685333,0.00119864,0.00466043,0.00585811,0.00754041,0.02489878,-0.01508
 190,-0.01522381,-0.00728022,0.01368789,-0.02831206,0.02279517,-0.00075
 122,0.00425595,0.00132006,0.01877699,0.02348886,-0.01250614,0.00098619
 ,0.00505137,0.00232509,-0.00144277,-0.00174380,-0.00358295,-0.01469833
 ,0.01068012,-0.00372783,0.00037853,-0.00210679,-0.00016104,-0.00345083
 ,-0.00671176,0.02723864,-0.05765559,-0.00956584,0.03445006,-0.00240772
 ,-0.00015936,0.00214469,-0.00001542,-0.00025421,-0.00078372,-0.0001241
 6,0.00100444,0.00030323,0.00078380,0.00121185,-0.00058275,0.05648393,0
 .01205033,-0.00051571,-0.00039567,-0.02090715,0.01525246,-0.00695641,-
 0.00120689,-0.03991625,0.06832853,-0.00949456,-0.01007933,0.00569896,-
 0.00034933,-0.00161882,-0.00058785,0.00090229,0.00072755,0.00069238,0.
 00832550,-0.00008904,0.00824535,0.01125111,0.03388958,0.00181871,0.000
 09637,0.00114187,-0.00264346,0.00774131,-0.00915214,0.03590793,0.07453
 792,-0.31840499,-0.00206867,-0.00404204,0.00093281,0.00022821,-0.00002
 545,0.00046784,0.00067438,-0.00063250,-0.00068612,0.00174700,-0.000595
 10,0.00261373,-0.03998416,-0.08011293,0.33381770,-0.00253629,-0.002661
 10,0.00211584,-0.02143750,0.00565354,-0.01461519,-0.24353000,0.0426478
 4,-0.13052463,0.00168748,0.00118040,0.00040610,-0.00074007,0.00112088,
 0.00022781,-0.00001047,-0.00001339,-0.00019742,-0.00011302,0.00046077,
 -0.00089410,0.00600746,-0.00057130,0.00432007,0.26067242,-0.01157771,0
 .00347708,0.00170135,0.00304365,-0.00937867,0.00906678,0.04869961,-0.0
 3900592,0.04036953,0.00755985,0.00805200,-0.00441216,0.00041236,0.0024
 5453,-0.00067719,-0.00059631,-0.00005340,0.00008311,-0.00505439,0.0015
 1804,-0.00644199,0.00533057,0.00234956,0.00303243,-0.04781764,0.030586
 77,-0.00142014,0.00142181,-0.00020670,0.01457769,-0.00661202,0.0134830
 7,-0.13109860,0.03997008,-0.14174770,0.00200765,0.00214104,-0.00056429
 ,0.00062911,0.00030682,-0.00046977,0.00006077,-0.00015431,0.00007773,-
 0.00129305,0.00056081,-0.00195692,-0.02262496,0.00508764,-0.01073069,0
 .13916152,-0.04272186,0.14211526\\0.00000043,-0.00000005,0.00000041,-0
 .00000055,-0.00000064,0.00000039,-0.00000006,0.00000022,0.00000003,0.0
 0000007,0.00000023,-0.00000092,0.00000011,-0.00000028,-0.00000004,0.,0
 .00000034,0.00000061,0.,-0.00000031,-0.00000070,0.00000001,0.00000060,
 0.00000020,0.,-0.00000010,0.00000003\\\@


 THE MOLECULE ALSO HAS A BODY.  WHEN THIS BODY IS HIT, THE MOLECULE
 FEELS HURT ALL OVER -- A. KITAIGORODSKI
 Job cpu time:       0 days  0 hours  2 minutes  2.6 seconds.
 Elapsed time:       0 days  0 hours  0 minutes  5.7 seconds.
 File lengths (MBytes):  RWF=     10 Int=      0 D2E=      0 Chk=      2 Scr=      1
 Normal termination of Gaussian 16 at Fri Jul 17 17:33:28 2020.
