[Molden Format]
[Geometries] (XYZ)
12

C        1.485018       1.437763      -2.115902
C        0.574203       0.563994      -1.252047
C        1.227668      -0.718048      -0.840296
O        0.867261       2.626864      -2.527694
O        0.642749       3.466861      -1.391801
O        2.338114      -1.062247      -1.129122
H        0.600100       4.344844      -1.791374
H        2.415328       1.651415      -1.575933
H        1.725019       0.938694      -3.057600
H        0.572976      -1.358044      -0.215092
H       -0.350124       0.331623      -1.787544
H        0.290590       1.115770      -0.351314
12

C        1.504846       1.507265      -1.996190
C        0.592812       0.590499      -1.184206
C        1.216497      -0.741401      -0.906296
O        0.922150       2.564753      -2.621262
O        0.630060       3.467098      -1.449166
O        2.288353      -1.108414      -1.295417
H        0.549150       4.291830      -1.946617
H        2.449579       1.723752      -1.488457
H        1.776109       0.950431      -2.989067
H        0.578116      -1.399052      -0.283241
H       -0.348957       0.431578      -1.716042
H        0.345655       1.070816      -0.233275
12

C        1.503775       1.566686      -1.891686
C        0.596846       0.610426      -1.125890
C        1.206447      -0.746776      -0.953794
O        0.989149       2.469171      -2.707530
O        0.620802       3.457021      -1.466863
O        2.247151      -1.110760      -1.421551
H        0.521744       4.224357      -2.045147
H        2.461852       1.774540      -1.407551
H        1.811655       0.938656      -2.972688
H        0.589368      -1.427038      -0.334535
H       -0.354920       0.500027      -1.652370
H        0.372114       1.030243      -0.141822
12

C        1.486424       1.621514      -1.826704
C        0.587099       0.642274      -1.092982
C        1.197732      -0.723212      -0.981258
O        1.060764       2.349706      -2.795384
O        0.622384       3.404830      -1.438358
O        2.222339      -1.072551      -1.492706
H        0.517863       4.125841      -2.067893
H        2.452523       1.819550      -1.353602
H        1.829788       0.939379      -3.031720
H        0.599669      -1.422014      -0.365597
H       -0.367599       0.553805      -1.618773
H        0.370218       1.027428      -0.094082
12

C        1.458946       1.672079      -1.820970
C        0.559286       0.689712      -1.096057
C        1.182224      -0.669372      -0.984355
O        1.109969       2.250913      -2.901220
O        0.644811       3.273614      -1.374065
O        2.213319      -0.999399      -1.499979
H        0.542726       3.981669      -2.013933
H        2.424199       1.875078      -1.346998
H        1.819552       1.004124      -3.169586
H        0.594766      -1.378727      -0.371557
H       -0.389432       0.594890      -1.631752
H        0.330767       1.075686      -0.101183
12

C        1.425769       1.732034      -1.790471
C        0.525629       0.734081      -1.078806
C        1.151675      -0.625539      -1.003890
O        1.166260       2.158751      -2.993891
O        0.658085       3.166829      -1.345868
O        2.176317      -0.934684      -1.548075
H        0.534633       3.841914      -2.021151
H        2.391391       1.934209      -1.315802
H        1.802257       1.079311      -3.249765
H        0.583659      -1.351514      -0.392524
H       -0.424684       0.650070      -1.613481
H        0.301358       1.101888      -0.076763
12

C        1.381429       1.800952      -1.728313
C        0.495799       0.768887      -1.042385
C        1.125532      -0.589061      -1.045205
O        1.236686       2.040599      -3.037310
O        0.659451       3.111989      -1.347666
O        2.127336      -0.867683      -1.647780
H        0.520355       3.718593      -2.082164
H        2.358366       1.973287      -1.261338
H        1.790068       1.091823      -3.252375
H        0.591106      -1.342339      -0.437146
H       -0.462474       0.705597      -1.565645
H        0.287893       1.091986      -0.022064
12

C        1.340667       1.875362      -1.649320
C        0.491025       0.783469      -0.985410
C        1.128764      -0.565225      -1.089603
O        1.338080       1.907317      -3.008968
O        0.654823       3.139561      -1.354785
O        2.080936      -0.814028      -1.779604
H        0.530614       3.655147      -2.161355
H        2.330377       1.991436      -1.176414
H        1.825229       1.011260      -3.191705
H        0.644450      -1.347249      -0.475321
H       -0.484489       0.738765      -1.478709
H        0.315633       1.044546       0.058546
12

C        1.302105       1.955419      -1.571014
C        0.493551       0.802913      -0.936433
C        1.139793      -0.530976      -1.132623
O        1.486503       1.772255      -2.940880
O        0.621015       3.155954      -1.384277
O        2.037479      -0.759619      -1.898789
H        0.528305       3.561957      -2.254789
H        2.282475       2.018477      -1.056309
H        1.939210       0.926125      -3.075246
H        0.708574      -1.335426      -0.507580
H       -0.495856       0.769579      -1.402874
H        0.345746       1.002831       0.125093
[GEOCONV]
energy
0.0
8.32539805788
35.7729136204
77.8795406192
94.4979120278
35.1013799394
-16.0510031832
-42.0854163063
-51.1730504671
max-force
6.86867575271e-05
0.00531561120251
0.00682772326846
0.00423267475918
0.00581046966941
0.00594141895946
0.00732176633499
0.00653467911439
6.42599102809e-05
max-step
1000.0
1000.0
1000.0
1000.0
1000.0
1000.0
1000.0
1000.0
1000.0
