[Molden Format]
[Geometries] (XYZ)
12

C        1.485018       1.437763      -2.115902
C        0.574203       0.563994      -1.252047
C        1.227668      -0.718048      -0.840296
O        0.867261       2.626864      -2.527694
O        0.642749       3.466861      -1.391801
O        2.338114      -1.062247      -1.129122
H        0.600100       4.344844      -1.791374
H        2.415328       1.651415      -1.575933
H        1.725019       0.938694      -3.057600
H        0.572976      -1.358044      -0.215092
H       -0.350124       0.331623      -1.787544
H        0.290590       1.115770      -0.351314
12

C        1.510843       1.506688      -1.970865
C        0.597500       0.591925      -1.160279
C        1.212842      -0.746945      -0.897403
O        0.922403       2.573956      -2.595846
O        0.621728       3.477583      -1.449938
O        2.277047      -1.121107      -1.300402
H        0.532620       4.297849      -1.952402
H        2.453462       1.725958      -1.462671
H        1.782176       0.953142      -2.942773
H        0.575182      -1.402788      -0.271741
H       -0.348415       0.444433      -1.687988
H        0.358993       1.065696      -0.203635
12

C        1.511945       1.567079      -1.844791
C        0.604579       0.609194      -1.086768
C        1.200526      -0.758331      -0.947037
O        0.991481       2.479085      -2.668916
O        0.605730       3.480801      -1.477573
O        2.226406      -1.129308      -1.440996
H        0.497539       4.234744      -2.069983
H        2.469870       1.775662      -1.365814
H        1.818924       0.940509      -2.892550
H        0.586353      -1.439415      -0.325923
H       -0.353868       0.519237      -1.604867
H        0.394658       1.012370      -0.092130
12

C        1.479747       1.621914      -1.800567
C        0.584301       0.639965      -1.077060
C        1.193775      -0.728982      -0.976651
O        1.051290       2.358827      -2.772805
O        0.603356       3.441727      -1.445828
O        2.215026      -1.077271      -1.494926
H        0.517363       4.159533      -2.079112
H        2.449822       1.813257      -1.338929
H        1.810778       0.950431      -2.993079
H        0.594286      -1.430516      -0.365845
H       -0.371080       0.557336      -1.602601
H        0.369022       1.017112      -0.074277
12

C        1.459711       1.657104      -1.828105
C        0.562140       0.690993      -1.097028
C        1.184554      -0.668773      -0.957123
O        1.093521       2.260740      -2.883853
O        0.623097       3.280475      -1.346645
O        2.218478      -1.011936      -1.456087
H        0.544407       4.007870      -1.961269
H        2.420264       1.869182      -1.350624
H        1.823201       0.997798      -3.187515
H        0.586428      -1.365562      -0.340830
H       -0.385071       0.589347      -1.634300
H        0.330871       1.094080      -0.109779
12

C        1.434523       1.721174      -1.807139
C        0.529681       0.739023      -1.084410
C        1.158759      -0.618574      -0.967834
O        1.157536       2.176163      -3.003688
O        0.662182       3.137338      -1.312933
O        2.193459      -0.938827      -1.485043
H        0.559329       3.843062      -1.958028
H        2.389018       1.946166      -1.324946
H        1.792700       1.131721      -3.287783
H        0.578340      -1.332465      -0.353717
H       -0.415796       0.642136      -1.625093
H        0.296259       1.132047      -0.094386
12

C        1.402045       1.801832      -1.726932
C        0.507729       0.781325      -1.034112
C        1.134993      -0.579286      -1.009045
O        1.242603       2.060888      -3.039520
O        0.677761       3.085843      -1.316790
O        2.148768      -0.867839      -1.586556
H        0.534609       3.712261      -2.033650
H        2.373011       1.992875      -1.257139
H        1.791353       1.154243      -3.264308
H        0.589647      -1.324947      -0.401214
H       -0.446538       0.713594      -1.562850
H        0.294646       1.122497      -0.020803
12

C        1.350030       1.875975      -1.647939
C        0.494778       0.792658      -0.981903
C        1.136040      -0.556801      -1.069157
O        1.340165       1.910582      -3.023799
O        0.673596       3.119696      -1.332782
O        2.100443      -0.804562      -1.741888
H        0.546094       3.645399      -2.132145
H        2.338214       1.999163      -1.177136
H        1.814861       1.050769      -3.214548
H        0.644511      -1.337631      -0.459248
H       -0.476474       0.743312      -1.482779
H        0.311352       1.065413       0.057464
12

C        1.302105       1.955419      -1.571014
C        0.493551       0.802913      -0.936433
C        1.139793      -0.530976      -1.132623
O        1.486503       1.772255      -2.940880
O        0.621015       3.155954      -1.384277
O        2.037479      -0.759619      -1.898789
H        0.528305       3.561957      -2.254789
H        2.282475       2.018477      -1.056309
H        1.939210       0.926125      -3.075246
H        0.708574      -1.335426      -0.507580
H       -0.495856       0.769579      -1.402874
H        0.345746       1.002831       0.125093
[GEOCONV]
energy
0.0
6.2835750765
30.3599269085
74.0016399589
96.6426132044
33.3051309959
-18.2751771735
-44.2606242451
-51.1730504671
max-force
6.86867575271e-05
0.00433390789793
0.00603427133854
0.00176725126092
0.00317596925609
0.00536668870688
0.00715526159591
0.00392560582583
6.42599102809e-05
max-step
1000.0
1000.0
1000.0
1000.0
1000.0
1000.0
1000.0
1000.0
1000.0
