[Molden Format]
[Geometries] (XYZ)
12

C        1.175972       1.348124      -2.562192
C        0.482314       0.298982      -1.689594
C        1.161717       0.179277      -0.349263
O        0.761433       2.656672      -2.243949
O        0.977466       2.940904      -0.879066
O        2.335515       0.330398      -0.161037
H        1.879901       3.292927      -0.829360
H        2.265406       1.245784      -2.455942
H        0.895309       1.253888      -3.612501
H        0.479916      -0.091858       0.477673
H        0.541039      -0.677737      -2.174528
H       -0.566888       0.562150      -1.556051
12

C        1.151799       1.499876      -2.566450
C        0.559966       0.454321      -1.622367
C        1.159964       0.215422      -0.308558
O        0.668770       2.793289      -2.272440
O        0.982659       3.161114      -0.943002
O        2.320007       0.074855      -0.048310
H        1.714019       3.792024      -1.024100
H        2.250739       1.465255      -2.516275
H        0.826674       1.348034      -3.597625
H        0.088721      -0.302563       0.494190
H        0.447052      -0.509279      -2.109596
H       -0.666339       0.650863      -1.279354
12

C        1.115851       1.746661      -2.526271
C        0.611174       0.730354      -1.524987
C        1.160565       0.382074      -0.208784
O        0.578894       3.027910      -2.250141
O        0.983979       3.479773      -0.966112
O        2.278174       0.027908      -0.015959
H        1.438708       4.316873      -1.135976
H        2.217806       1.760686      -2.533716
H        0.751296       1.541713      -3.534989
H       -0.317074      -0.306208       0.437565
H        0.302873      -0.196690      -1.975324
H       -0.694272       0.913013      -0.973178
12

C        0.991213       1.885199      -2.518722
C        0.550969       0.914174      -1.477832
C        1.093685       0.464784      -0.118968
O        0.424431       3.170817      -2.246079
O        0.890051       3.709136      -1.015423
O        2.104196      -0.088774      -0.049574
H        1.004422       4.649596      -1.207116
H        2.089003       1.918860      -2.576601
H        0.588317       1.647045      -3.497988
H       -0.710987      -0.192707       0.260631
H        0.064524       0.043057      -1.871390
H       -0.737789       1.072265      -0.724668
12

C        0.841033       2.017090      -2.458096
C        0.439005       1.087227      -1.399622
C        0.978391       0.640294       0.005460
O        0.198211       3.298574      -2.137729
O        0.644538       3.891136      -0.914846
O        1.870709       0.004588      -0.112274
H        0.606603       4.845792      -1.096197
H        1.939500       2.075894      -2.551258
H        0.409627       1.775651      -3.424708
H       -1.200022       0.068680       0.296221
H       -0.147906       0.265964      -1.749776
H       -1.029359       1.209046      -0.324608
12

C        0.719088       2.268469      -2.363485
C        0.326230       1.369183      -1.289296
C        0.849598       0.957936       0.119436
O        0.010910       3.541715      -2.007761
O        0.430666       4.178385      -0.789318
O        1.573441       0.250693      -0.180445
H        0.188545       5.122226      -0.928450
H        1.816902       2.341852      -2.464807
H        0.288335       2.021719      -3.326222
H       -1.653128       0.432046       0.472749
H       -0.364443       0.624692      -1.600784
H       -1.315147       1.401323       0.130754
12

C        1.037877       1.929614      -2.424769
C        0.609491       0.973071      -1.356708
C        1.032859       0.685350      -0.094783
O        0.432815       3.188164      -2.296794
O        0.949430       3.831584      -1.120896
O        1.958333       0.115263      -0.721203
H        0.761162       4.760264      -1.279905
H        2.134048       2.032329      -2.420798
H        0.695849       1.594711      -3.404086
H       -1.578118      -0.315322       0.454283
H       -0.077497       0.197600      -1.710855
H       -1.206371       0.542777       0.260828
12

C        1.524678       1.475188      -2.473584
C        1.030487       0.505496      -1.416846
C        1.358566       0.261396      -0.276711
O        0.937026       2.739623      -2.479476
O        1.391549       3.481379      -1.359094
O        2.011718      -0.312834      -1.290875
H        1.033325       4.359147      -1.537762
H        2.614676       1.585424      -2.385490
H        1.256883       1.091691      -3.463516
H       -1.471697      -0.982276       0.593795
H        0.242571      -0.170946      -1.757951
H       -0.968581      -0.388756       0.504100
12

C        1.501226       1.559124      -2.843348
C        1.034816       0.496558      -1.876660
C        1.719538       0.167349      -0.827464
O        1.043253       2.847158      -2.512776
O        1.754126       3.316943      -1.366165
O        2.359807      -0.170955       0.080017
H        1.270126       4.121694      -1.141470
H        2.594732       1.563880      -2.910912
H        1.066546       1.388948      -3.830300
H       -1.326172      -1.170712       0.743100
H        0.030526       0.126697      -1.989852
H       -0.659423      -0.907173       0.440021
[GEOCONV]
energy
0.0
34.3899045838
87.6360989064
132.109495751
182.178275911
191.118274537
126.138844199
155.733365053
33.8678924295
max-force
5.01625232446e-05
0.011902714452
0.0122057666765
0.00996911653973
0.0102351117563
0.0121147523361
0.0078743195066
0.00473389268144
6.89344191832e-05
max-step
1000.0
1000.0
1000.0
1000.0
1000.0
1000.0
1000.0
1000.0
1000.0
