[Molden Format]
[Geometries] (XYZ)
12

C        1.175972       1.348124      -2.562192
C        0.482314       0.298982      -1.689594
C        1.161717       0.179277      -0.349263
O        0.761433       2.656672      -2.243949
O        0.977466       2.940904      -0.879066
O        2.335515       0.330398      -0.161037
H        1.879901       3.292927      -0.829360
H        2.265406       1.245784      -2.455942
H        0.895309       1.253888      -3.612501
H        0.479916      -0.091858       0.477673
H        0.541039      -0.677737      -2.174528
H       -0.566888       0.562150      -1.556051
12

C        1.224307       1.432329      -2.607654
C        0.621271       0.406835      -1.670173
C        1.218094       0.138757      -0.332261
O        0.749172       2.735480      -2.333271
O        1.052742       3.106938      -1.000450
O        2.366057      -0.029234      -0.081207
H        1.753567       3.762695      -1.087589
H        2.325340       1.389857      -2.563238
H        0.878968       1.272258      -3.636909
H        0.200481      -0.386846       0.408845
H        0.492162      -0.551548      -2.151434
H       -0.513728       0.596292      -1.341274
12

C        1.257135       1.496460      -2.646357
C        0.754657       0.504554      -1.633573
C        1.295341       0.110010      -0.308067
O        0.748179       2.796218      -2.398086
O        1.150730       3.240839      -1.111096
O        2.368652      -0.322434      -0.058176
H        1.538089       4.103838      -1.281863
H        2.363435       1.526677      -2.659263
H        0.847550       1.274573      -3.641251
H       -0.071362      -0.542952       0.203326
H        0.415240      -0.420532      -2.065399
H       -0.369533       0.669395      -1.138446
12

C        1.299679       1.541675      -2.651422
C        0.859805       0.548392      -1.615294
C        1.412342       0.100998      -0.309773
O        0.748737       2.825744      -2.420617
O        1.212359       3.365583      -1.186158
O        2.379217      -0.541345      -0.113343
H        1.275649       4.308655      -1.388756
H        2.398811       1.605270      -2.723806
H        0.861253       1.290468      -3.620081
H       -0.310296      -0.432157      -0.036264
H        0.336412      -0.310940      -2.002044
H       -0.218791       0.734426      -0.908766
12

C        1.359532       1.541434      -2.655854
C        0.944990       0.560813      -1.624817
C        1.541178       0.172162      -0.326962
O        0.751591       2.807760      -2.387763
O        1.180879       3.363904      -1.147536
O        2.489517      -0.562639      -0.316959
H        1.134522       4.307457      -1.364663
H        2.452932       1.655622      -2.762473
H        0.904048       1.269032      -3.608576
H       -0.636462      -0.157095      -0.083180
H        0.381147      -0.302610      -1.984378
H       -0.356511       0.735641      -0.697881
12

C        1.446464       1.530463      -2.652106
C        1.036874       0.585000      -1.597220
C        1.600963       0.220430      -0.237432
O        0.798270       2.776980      -2.407359
O        1.255914       3.382234      -1.195946
O        2.442495      -0.535861      -0.513970
H        1.069388       4.324448      -1.347962
H        2.544244       1.635181      -2.707917
H        1.036124       1.277643      -3.631773
H       -0.830901      -0.300469       0.039341
H        0.367930      -0.214003      -1.932516
H       -0.548309       0.584800      -0.305528
12

C        1.559779       1.494049      -2.498072
C        1.098284       0.525720      -1.440414
C        1.508974       0.211786      -0.161677
O        0.957219       2.756816      -2.417560
O        1.399517       3.433610      -1.253531
O        2.324853      -0.371404      -0.959208
H        1.189860       4.359336      -1.448548
H        2.658856       1.591653      -2.452018
H        1.232301       1.164843      -3.496144
H       -1.106215      -0.717164       0.389787
H        0.398484      -0.235629      -1.819192
H       -0.775216       0.047746       0.226131
12

C        1.644152       1.488176      -2.543130
C        1.172321       0.489539      -1.505591
C        1.638833       0.344320      -0.141550
O        1.019313       2.739975      -2.441429
O        1.475748       3.403781      -1.264560
O        2.243913      -0.335919      -1.015623
H        1.094765       4.284038      -1.371531
H        2.732943       1.599800      -2.466106
H        1.355704       1.156142      -3.542607
H       -1.353048      -0.787337       0.557701
H        0.348637      -0.147662      -1.818454
H       -0.868930      -0.184022       0.468249
12

C        1.501226       1.559124      -2.843348
C        1.034816       0.496558      -1.876660
C        1.719538       0.167349      -0.827464
O        1.043253       2.847158      -2.512776
O        1.754126       3.316943      -1.366165
O        2.359807      -0.170955       0.080017
H        1.270126       4.121694      -1.141470
H        2.594732       1.563880      -2.910912
H        1.066546       1.388948      -3.830300
H       -1.326172      -1.170712       0.743100
H        0.030526       0.126697      -1.989852
H       -0.659423      -0.907173       0.440021
[GEOCONV]
energy
0.0
24.0703235994
64.5046639676
113.052776976
142.148026869
155.872356011
107.927241573
91.6487307641
33.8678924295
max-force
5.01625232446e-05
0.0111295122849
0.0119344557378
0.00513363062974
0.0113019299695
0.0152716943757
0.0107192687593
0.00390752237438
6.89344191832e-05
max-step
1000.0
1000.0
1000.0
1000.0
1000.0
1000.0
1000.0
1000.0
1000.0
