18
 energy: -37.881157046278 gnorm: 0.000785965007 xtb: 6.2.3 (830e466)
C        -0.60841400848302    0.48153125675151    1.64844686707874
C        -2.28192321763433   -2.47201048097697    3.13675931346934
C        -1.56949407255941   -2.86677442121673    4.41906215159119
C        -0.93653281614094   -1.03167218511187    1.84399609176385
N         1.54095945811368   -2.60678741850269    3.52384758125932
O        -1.87961486586390   -1.14638486560422    2.73834479962288
F         0.34905036647724    0.65874203041883    0.73969959012181
F        -0.18273325190117    1.03345765333673    2.79186331025115
F        -1.68123638789831    1.17212442473441    1.24753892860970
O        -0.37319657541775   -1.88866420315247    1.22779705472262
H        -3.36251646630565   -2.40718981584155    3.27759191617887
H        -2.04730607299118   -3.16707643844597    2.32653867409042
H         1.94894641871487   -1.68357922927097    3.61606525843233
H         1.35329068975196   -2.75564229042092    2.53764070287887
H         2.24811758050312   -3.27737753740908    3.80294203168904
H        -1.88894193028434   -3.86174844662438    4.71360877152018
H        -0.48979071347919   -2.86566948701871    4.26294609195988
H        -1.81415413460086   -2.16627854564573    5.21273086475940
18
Properties=species:S:1:pos:R:3 6.2.3=T gnorm:=T -37.916182067300=T pbc="F F F" energy:=T 0.000754187844=T xtb:=T 830e466=T
C       0.25270437       1.54240004       1.56958081 
C      -2.01468304      -3.46709358       3.36058667 
C      -1.93346178      -2.88360120       4.76628431 
C      -0.18660217      -2.34878160       2.22372191 
N       0.69801863      -3.05221013       2.97633579 
O      -1.49467739      -2.58734149       2.37251655 
F       0.76482385       2.30204131       0.60173586 
F       1.07577517       1.60981316       2.61766117 
F      -0.90988587       2.08231802       1.93697736 
O       0.17367491      -1.50215619       1.44128675 
H      -3.06053175      -3.59426481       3.07029430 
H      -1.52583051      -4.44871466       3.30627032 
H       0.12434897       0.49835882       1.24031212 
H       0.45223825      -3.88366857       3.48278727 
H       1.67022447      -2.90477781       2.76546469 
H      -2.39212773      -3.57077390       5.47183503 
H      -0.90296337      -2.70532387       5.06411051 
H      -2.46653503      -1.93722355       4.79965857 
