14
 energy: -33.446190481017 gnorm: 0.000288471012 xtb: 6.2.3 (830e466)
C        -0.35546333857394    0.15684047735876    1.19347129785264
C        -1.71445519584478   -2.67179329083247    3.16047455113201
C        -2.15808908603814   -2.53306879908340    4.60241584914399
C        -0.76022899162523   -1.31834038335450    1.49911735048238
O        -1.28216813193658   -1.37710702289928    2.69877973178099
F         0.19264544495552    0.27588282995345   -0.01219141237633
F         0.52957499139010    0.61054357848422    2.08920714682970
F        -1.41857773676559    0.96875648056902    1.23909622360584
O        -0.59532624440908   -2.21366125241791    0.72558496655094
H        -2.53194034407605   -3.01015427790897    2.51600054722992
H        -0.87940913455799   -3.37187039685177    3.05673612801431
H        -2.48540044571222   -3.49943579083421    4.97407533319759
H        -1.33562818521385   -2.17587273789762    5.21552996009776
H        -2.97959360159217   -1.82630941428531    4.67591232645826
14
Properties=species:S:1:pos:R:3 -33.446899763137=T gnorm:=T pbc="F F F" energy:=T 0.000557273355=T 6.2.3=T xtb:=T 830e466=T
C      -0.58811251      -0.16275470       2.82932354 
C      -1.53050181      -2.45994432       3.33877564 
C      -1.44066811      -0.99235959       3.77438447 
C      -1.82698519      -2.84069867       1.01046406 
O      -2.36459958      -2.61042548       2.21057542 
F       0.62690624      -0.70657090       2.64121882 
F      -0.38300229       1.07033491       3.31022795 
F      -1.13216166      -0.01974909       1.61715672 
O      -2.47520765      -2.96126439       0.02419690 
H      -1.98764445      -3.04065303       4.14474689 
H      -0.52734129      -2.85634884       3.13127145 
H      -0.71802300      -2.92556585       1.03590148 
H      -0.98797122      -0.92781877       4.76471871 
H      -2.43874747      -0.55177127       3.80124796 
