10
 energy: -38.840747371730 gnorm: 0.000453188775 xtb: 6.2.3 (830e466)
C        -0.38195359096799   -0.07922986629451   -7.17185615243617
C        -0.97804638123838   -0.71127583269667   -4.66979693928140
C        -0.03797674950445   -0.22143099414810   -5.68673528476034
O         0.01289113929413   -1.50759374851580   -5.14393256902294
F         0.70627370446474   -0.12238521178489   -7.92914754184120
F        -1.19914658053638   -1.05128379211958   -7.56070694977941
F        -0.99154277683724    1.08467559110862   -7.39861466306164
F        -0.91214079625968   -0.29430641324931   -3.41847809075371
F        -2.23153144372865   -1.01544034804502   -4.96807711158441
F         0.94857347531391    0.60787061574525   -5.30945469747877
10
Properties=species:S:1:pos:R:3 6.2.3=T gnorm:=T pbc="F F F" -38.738122915862=T energy:=T 0.000302910658=T xtb:=T 830e466=T
C      -0.59568590      -0.24302372      -7.21426361 
C      -1.19241228      -0.46588408      -4.81841247 
C      -0.23330927      -0.32565474      -5.73395164 
O       1.11091239      -0.23656517      -5.56342296 
F       0.48256871      -0.10677118      -7.97249043 
F      -1.23828029      -1.33990504      -7.61713704 
F      -1.39697821       0.79443374      -7.45929321 
F      -1.01896759      -0.54700235      -3.51792087 
F      -2.46921360      -0.53680690      -5.13728251 
F       1.48676604      -0.30322055      -4.22262526 
