8
 energy: -25.571013124430 gnorm: 0.000780372308 xtb: 6.2.3 (830e466)
S         0.03915855389169   -2.21960026444136    0.91454851198247
O         0.02461346396393   -4.48948093651540    0.69335015586962
Cl       -1.87886547041275   -2.62654480781967    0.44961556226909
Cl       -0.23195736707854   -0.19716163798695    1.04789447304284
O         0.38808085472441   -2.57519346195358    2.24795937544917
O         0.92801301113525   -2.34193269673445   -0.19086434161853
H         0.67029265051697   -4.68611188253320    0.00387099313941
H         0.35966430325898   -4.83867431201518    1.52812526986576
8
Properties=species:S:1:pos:R:3 6.2.3=T gnorm:=T pbc="F F F" 0.000744798731=T energy:=T -25.432698707394=T 830e466=T xtb:=T
S       0.00575494      -2.52468673       0.35533798 
O      -0.09010855      -4.36453870       2.15910035 
Cl      -1.57344499      -3.82491245      -0.08199122 
Cl       0.51550115      -0.73451666       1.25520399 
O      -0.02062747      -2.99642510       1.99511520 
O       1.17475844      -3.11777346      -0.19882545 
H      -0.51354077      -1.71061297      -0.73582061 
H       0.80070725      -4.70123393       1.94637977 
