14
 energy: -33.446190481017 gnorm: 0.000288471012 xtb: 6.2.3 (830e466)
C        -0.35546333857394    0.15684047735876    1.19347129785264
C        -1.71445519584478   -2.67179329083247    3.16047455113201
C        -2.15808908603814   -2.53306879908340    4.60241584914399
C        -0.76022899162523   -1.31834038335450    1.49911735048238
O        -1.28216813193658   -1.37710702289928    2.69877973178099
F         0.19264544495552    0.27588282995345   -0.01219141237633
F         0.52957499139010    0.61054357848422    2.08920714682970
F        -1.41857773676559    0.96875648056902    1.23909622360584
O        -0.59532624440908   -2.21366125241791    0.72558496655094
H        -2.53194034407605   -3.01015427790897    2.51600054722992
H        -0.87940913455799   -3.37187039685177    3.05673612801431
H        -2.48540044571222   -3.49943579083421    4.97407533319759
H        -1.33562818521385   -2.17587273789762    5.21552996009776
H        -2.97959360159217   -1.82630941428531    4.67591232645826
14
Properties=species:S:1:pos:R:3 6.2.3=T gnorm:=T 0.000296896108=T pbc="F F F" energy:=T xtb:=T 830e466=T -33.426029657827=T
C      -0.51290234      -0.24382305       1.11426987 
C      -1.10298158      -2.10179394       3.48727442 
C      -2.01462669      -2.94953255       4.33933483 
C      -1.55899150      -1.07204412       1.89091701 
O      -1.57416833      -0.77035165       3.25686406 
F      -0.41109106      -0.66073320      -0.15180187 
F       0.69975483      -0.32319827       1.66149627 
F      -0.85306436       1.04843705       1.07554803 
O      -1.15440959      -2.39665216       2.08789471 
H      -2.52998361      -0.95753471       1.38294135 
H      -0.06919412      -2.10311425       3.86032253 
H      -1.65145688      -3.97281411       4.33681446 
H      -2.01619806      -2.55950347       5.35268385 
H      -3.02474669      -2.92293157       3.93965047 
