14
 energy: -33.446190481017 gnorm: 0.000288471012 xtb: 6.2.3 (830e466)
C        -0.35546333857394    0.15684047735876    1.19347129785264
C        -1.71445519584478   -2.67179329083247    3.16047455113201
C        -2.15808908603814   -2.53306879908340    4.60241584914399
C        -0.76022899162523   -1.31834038335450    1.49911735048238
O        -1.28216813193658   -1.37710702289928    2.69877973178099
F         0.19264544495552    0.27588282995345   -0.01219141237633
F         0.52957499139010    0.61054357848422    2.08920714682970
F        -1.41857773676559    0.96875648056902    1.23909622360584
O        -0.59532624440908   -2.21366125241791    0.72558496655094
H        -2.53194034407605   -3.01015427790897    2.51600054722992
H        -0.87940913455799   -3.37187039685177    3.05673612801431
H        -2.48540044571222   -3.49943579083421    4.97407533319759
H        -1.33562818521385   -2.17587273789762    5.21552996009776
H        -2.97959360159217   -1.82630941428531    4.67591232645826
14
Properties=species:S:1:pos:R:3 6.2.3=T gnorm:=T 0.000925471227=T pbc="F F F" energy:=T -33.444637667746=T xtb:=T 830e466=T
C      -1.37859806       0.30944308       1.10487491 
C      -0.95865091      -2.63523884       3.28714003 
C      -1.66326897      -2.77393406       4.61850980 
C      -1.13766784      -1.18109604       1.43937076 
O      -1.20880753      -1.34519125       2.76236546 
F       0.39163621      -2.75250022       3.45615589 
F      -0.65898281       1.10912191       1.91568524 
F      -1.00647958       0.57124981      -0.15933076 
O      -0.97717138      -2.03480526       0.62597425 
H      -2.44509216       0.56987511       1.21842905 
H      -1.24747738      -3.40213331       2.55223605 
H      -1.40782642      -3.73344807       5.05866258 
H      -1.33857109      -1.97539085       5.28016969 
H      -2.73710209      -2.71154200       4.47396705 
