10
 energy: -38.840747211706 gnorm: 0.000386868280 xtb: 6.2.3 (830e466)
C        -0.33427812572471    0.07407529421989   -7.12488266796303
C        -1.03288935655150   -0.84275380981291   -4.74018298991236
C        -0.03877859579272   -0.28343827026871   -5.66579704288259
O        -0.07916825615990   -1.63040862328394   -5.29776775685804
F         0.76883517709777    0.06168097185656   -7.86141905940691
F        -1.19837565536164   -0.78449169773974   -7.65400327969269
F        -0.86598000899565    1.29406154206315   -7.20610741384151
F        -0.97526953702553   -0.59880786710506   -3.44362919004127
F        -2.29401584566749   -1.02591786428404   -5.09913497370984
F         0.98531020418138    0.42549032435479   -5.16378562569177
10
Properties=species:S:1:pos:R:3 6.2.3=T gnorm:=T pbc="F F F" energy:=T -38.854504240300=T 0.000454421486=T 830e466=T xtb:=T
C      -0.30369445      -0.13154730      -7.48606992 
C      -1.09830657      -0.68156619      -4.21335665 
C      -0.20926408      -0.51791042      -5.19104918 
O      -0.40465957      -1.00096289      -6.45408222 
F       0.95090449       0.20892667      -7.75975106 
F      -0.81129611      -0.70423162      -8.55975631 
F      -0.97256751       1.00063692      -7.26105833 
F      -0.90528858      -0.31441116      -2.96520719 
F      -2.26029018      -1.27591979      -4.38221951 
F       0.94985256       0.10647578      -4.98415964 
