13
 energy: -16.684426654872 gnorm: 0.000441000096 xtb: 6.2.3 (830e466)
C        -0.80564969442550   -1.21848368564401   -0.22355959969998
C         1.90848950307100    0.39207174996427   -0.19410445014449
C        -0.61469771920782    0.24891761195934   -0.00307680083662
C         0.52823318654348    0.92677569421639    0.00923975810294
O        -1.82269027323556    0.86880069026580    0.19957524330047
H        -1.68636735829613    1.81261906459397    0.34053888668136
H         0.48622917738081    1.99679146571810    0.18545178885581
H         0.13599267927223   -1.72800901599483   -0.38908221472746
H        -1.45392402576296   -1.37030724450228   -1.08486079359622
H        -1.30135102615154   -1.65018346508916    0.64425640623499
H         2.37634509900794    0.88172387276568   -1.04878390086599
H         1.91268620713432   -0.67893964037474   -0.36742421304739
H         2.52301424466973    0.60215290212147    0.68187988974259
13
Properties=species:S:1:pos:R:3 6.2.3=T gnorm:=T pbc="F F F" energy:=T -16.616820527245=T xtb:=T 830e466=T 0.000946148023=T
C       0.26994412      -1.52788466      -0.37484799 
C       1.61322695      -0.81575489      -0.32805697 
C      -1.07215363       1.93699802       0.22087058 
C      -0.04049432       2.51778038       0.38873237 
O      -2.17343189       1.26466964       0.02512036 
H      -2.92632839       1.71547824       0.42147828 
H       0.87283980       3.01319028       0.50364061 
H       0.28837244      -2.33768967      -1.10139294 
H      -0.51639287      -0.83154185      -0.65389208 
H       0.02592572      -1.94679019       0.59919210 
H       1.86145292      -0.40564339      -1.30428056 
H       2.40383962      -1.50238855      -0.03256558 
H       1.57950952       0.00350664       0.38605182 
