11
 energy: -17.528656961948 gnorm: 0.000762521133 xtb: 6.2.3 (830e466)
C         1.44365091124565   -0.26271930619805    1.47303553074103
C        -0.26109314883733   -2.46063383393230    1.92125669269275
C         0.17268731153186    0.10116448954164    1.61541985866308
O         2.25492784834724   -0.71480406333550    2.43885125236841
O         0.15232202499998   -2.55953452402109    3.04376374067764
H         1.75077286389299   -0.91841344340563    3.24083525620787
H         1.94909299209807   -0.23008263051175    0.51672021121967
H        -1.28943510711226   -2.14296174962918    1.69115074514940
H         0.33047354266546   -2.76064068122361    1.04280543327895
H        -0.30701972788759    0.12487947258203    2.57915442267484
H        -0.39427951094416    0.45865627013281    0.77709685632650
11
Properties=species:S:1:pos:R:3 6.2.3=T gnorm:=T 0.000349112476=T pbc="F F F" energy:=T -17.570410544011=T 830e466=T xtb:=T
C       1.62190265      -0.21644235       1.31482731 
C      -0.25369826      -1.78483518       1.94910772 
C       0.34569154      -0.58081390       1.28101048 
O       2.65091231      -0.85580815       1.91470886 
O      -1.30500896      -1.44338888       2.82993065 
H       2.33688426      -1.65398961       2.35874597 
H       1.96755777       0.67955178       0.81915352 
H      -0.71116321      -2.44243512       1.20303327 
H       0.50898482      -2.36886371       2.49170275 
H      -1.00212528      -0.74444827       3.42010485 
H      -0.35783765       0.04638339       0.75776460 
