16
 energy: -16.628441155777 gnorm: 0.000643293069 xtb: 6.2.3 (830e466)
C         1.79501578445928   -0.03838395618454    0.03131374697804
C        -0.76872642989194   -1.13633841580689   -0.21757837259012
P         0.50871055811063   -0.84541868922958    1.09149586770207
C        -1.14178498485529    2.61739395244116   -0.47102800953104
C        -0.27327948710282    3.04634571518638    0.42130191738081
H        -0.05043854081529    0.35252582271798    1.55290500743030
H         1.35693830603895    0.73378573845069   -0.59811366885761
H         2.55810725690765    0.39960557325458    0.67099311431444
H         2.26392796545346   -0.79700500788794   -0.59426328374469
H        -0.95347518227604   -0.23128224976021   -0.79385595821323
H        -0.41943658427266   -1.92634122145164   -0.88139801668044
H        -1.69240451876168   -1.46596710080449    0.25299331560072
H        -2.13252271548430    2.29501442138033   -0.19380056795270
H        -0.90612959444412    2.57177918597170   -1.52267753291663
H        -0.51202594970217    3.09921583197840    1.47117655412322
H         0.71652411663638    3.37305039974400    0.14617588695705
16
Properties=species:S:1:pos:R:3 6.2.3=T gnorm:=T pbc="F F F" -16.682218664938=T 0.000645307270=T energy:=T xtb:=T 830e466=T
C       1.63795200       0.11130063      -0.25296073 
C      -0.85491224      -1.08098309      -0.62842114 
P       0.03025419      -0.07331072       0.65081732 
C      -0.73367453       1.57268422       0.21264098 
C      -0.13829870       2.71616442       1.02228652 
H      -0.24246242       2.51957360       2.08714627 
H       1.48508087       0.48458235      -1.26508551 
H       2.28447685       0.79416589       0.29402156 
H       2.12782787      -0.85987114      -0.29430705 
H      -0.78313863      -0.62568170      -1.61545341 
H      -0.41732328      -2.07685361      -0.65728990 
H      -1.90201415      -1.17454699      -0.34778407 
H      -1.80293939       1.49107812       0.42711599 
H      -0.61605602       1.75991216      -0.85914204 
H      -0.64542881       3.65178191       0.79191930 
H       0.91965640       2.83798395       0.80013590 
