10
 energy: -11.549257541736 gnorm: 0.000180603922 xtb: 6.2.3 (830e466)
C        -1.78237993695924   -0.69623143120700   -0.42965937747287
C        -1.83555058180267    0.74495841666279   -0.24011632999716
C        -1.00311071358690   -1.54758507802736    0.22837378870787
C        -1.10593438176642    1.45296138585555    0.61513769354991
H        -2.45516321855630   -1.08121827672021   -1.18610881654684
H        -2.54776845334398    1.26142367741965   -0.87184497200778
H        -0.31530773046131   -1.22774596935301    0.99214965828742
H        -1.02637357967803   -2.60440245821354    0.02466751418053
H        -1.20918886015093    2.52172838952532    0.69253391658281
H        -0.38122254369421    0.99883134405781    1.26881692471610
10
Properties=species:S:1:pos:R:3 0.000775214255=T 6.2.3=T gnorm:=T pbc="F F F" energy:=T -11.473401474612=T 830e466=T xtb:=T
C      -0.73411963      -0.39893673      -0.43512014 
C      -1.24795464       0.91233536      -0.34873744 
C      -0.30875498      -1.51940155      -0.51263421 
C      -1.02965141       1.71462339       0.68625051 
H      -3.69020319      -1.97922240       0.73849962 
H      -1.84617155       1.23188634      -1.19361016 
H      -2.98826773      -1.74934325       0.48951663 
H       0.05581073      -2.50056803      -0.58145246 
H      -1.43550372       2.71099000       0.72177564 
H      -0.43718388       1.40035687       1.52946200 
