16
 energy: -17.892595290008 gnorm: 0.000716842454 xtb: 6.2.3 (830e466)
C        -0.10331257752242    0.73489173443276    0.24730397195762
C         0.00789459165317   -0.73863539901469   -0.25668968047807
C        -0.87156798286799    0.95368294096678    1.53976133036309
C        -0.47634207265436   -1.01067821602129   -1.67087589540457
C         1.40061160698411    0.68645733314180    0.35882934197886
C         1.49581573000195   -0.56388604836860   -0.07756546501057
H        -0.46461244824831    1.41925283182931   -0.52402618447618
H        -0.43645049589649   -1.45701082508309    0.43644354928155
H         2.10855049508519    1.42327112285369    0.69366484263010
H         2.31391833458932   -1.23635742312887   -0.26392993629986
H        -0.74581472545696    1.97700406671425    1.88570917700682
H        -0.50798913973338    0.28231497650173    2.31427919545540
H        -1.93257871269479    0.76806220572334    1.38808562989427
H        -0.20000938053020   -2.01733345414681   -1.97822576901719
H        -0.02903738611735   -0.30376469898923   -2.36662031297615
H        -1.55908583659148   -0.91736114741105   -1.72664379490510
16
Properties=species:S:1:pos:R:3 -17.890054422051=T 6.2.3=T gnorm:=T pbc="F F F" 0.000812840462=T energy:=T xtb:=T 830e466=T
C      -0.50658014       0.61001151       0.29009210 
C       0.09859408      -0.76467003       0.12066634 
C      -1.41997857       0.88801986       1.45562321 
C      -0.96318911      -0.26284946      -0.82966489 
C       2.12549855      -0.17052451      -1.20188138 
C       1.49358153      -0.93254958      -0.32291899 
H       0.13688747       1.44164854       0.03000112 
H      -0.22593191      -1.51102262       0.83576243 
H       1.65346019       0.66865810      -1.68562311 
H       2.01803437      -1.76305662       0.13209195 
H      -0.84338234       1.15302293       2.33982802 
H      -2.02407614       0.01396302       1.68741261 
H      -2.08893546       1.71557600       1.22414307 
H       3.14987747      -0.35625697      -1.47502081 
H      -0.65874045      -0.02332966      -1.83704002 
H      -1.94512954      -0.70673051      -0.76397167 
