21
 energy: -31.055990133943 gnorm: 0.000962674252 xtb: 6.2.3 (830e466)
C         2.26990435657995   -1.68246568461108    1.22930504069253
C        -3.33906848695041   -2.70552620496841    0.48150110771918
C        -3.22411997186687    0.39785723195291    0.13645859006275
C         1.04622463066484   -2.47472512491572    1.56790116361051
C        -2.87347382230758   -0.63430475363758   -0.89040104896926
C        -2.93108894361902   -1.95418518824225   -0.74155204892691
O        -0.10108657166008   -2.10996460905532    0.95242261917146
O         0.00964486762629   -1.01583267622759    0.06379437620248
O         0.97773967887429   -3.39822497274099    2.32655030150865
H        -0.90989782427109   -0.95078574282269   -0.28115346862918
H        -2.64854921764522   -2.58172853037522   -1.57816882218068
H        -2.58310518243218   -0.23058191936367   -1.85341938694284
H         2.09966427434085   -0.63425416127544    1.46740546121258
H         2.45939039158120   -1.75156384248101    0.16007175964233
H         3.11473174397415   -2.06755485598362    1.78977171699589
H        -3.79187912979189   -2.06010044723946    1.22740150897493
H        -2.47040768588926   -3.19533552035296    0.92217945297340
H        -4.05338116207018   -3.48184193673587    0.21203479173775
H        -3.16456486428079    0.00299218473419    1.14675607168567
H        -4.23971308168503    0.75913994996913   -0.03125948308483
H        -2.55367399916829    1.25209680437102    0.05521029654345
21
Properties=species:S:1:pos:R:3 -31.020448069983=T 6.2.3=T gnorm:=T pbc="F F F" energy:=T 0.000926744537=T 830e466=T xtb:=T
C       1.94296737      -2.36345528       1.61057644 
C      -2.03407405      -2.12965048       0.24140768 
C      -3.80604693       0.38045942      -0.14389041 
C       0.69975083      -3.03012789       2.09284237 
C      -3.48224789      -0.63623099      -1.18792431 
C      -2.73396270      -1.71954908      -1.02968859 
O      -1.31364695      -1.08560896       0.87520631 
O      -0.26983617      -0.60572208       0.05136843 
O       0.19709721      -4.00488105       1.60349036 
H      -0.70310048       0.02223828      -0.54707391 
H      -2.57898976      -2.38567030      -1.86630890 
H      -3.92300219      -0.44706961      -2.15939250 
H       1.63605363      -1.44438666       1.10923288 
H       2.47511145      -2.99414753       0.90266307 
H       2.58322637      -2.09498113       2.44717516 
H       0.23113936      -2.52770355       2.96181809 
H      -1.37240634      -2.98167832       0.05188657 
H      -2.75316556      -2.41244902       1.01690720 
H      -3.35365360       0.13622424       0.81216086 
H      -4.88726220       0.44154514      -0.02124104 
H      -3.46066139       1.36595485      -0.45840578 
