9
 energy: -18.438051438541 gnorm: 0.000167786893 xtb: 6.2.3 (830e466)
C         2.15057934918855   -1.90750146170589    1.06445728263766
C         0.67458820619809   -2.13630341809726    0.98125649176136
O        -0.07888898998344   -1.08407362535384    0.57218303238413
O         0.64536599495688    0.09767114785605    0.28166241812394
O         0.08730098033800   -3.14585278577337    1.23573991895332
H        -0.06262640370455    0.71064350357630    0.03493410578176
H         2.63663448443897   -2.81681155785546    1.40183407677553
H         2.52790376451608   -1.61566356928590    0.08620784875870
H         2.35269261405143   -1.09044823336064    1.75444482482361
9
Properties=species:S:1:pos:R:3 -18.508120695330=T gnorm:=T pbc="F F F" energy:=T 0.000331291401=T xtb:=T 6.2.3=T 830e466=T
C       1.91508172      -1.33574182       0.62965551 
C       0.87983162      -2.41445243       0.99115784 
O      -0.16179606      -1.92174991       1.65565400 
O       1.35716000      -0.04158835       0.73713274 
O       1.00810787      -3.56936478       0.71029015 
H       0.91057955       0.18567841      -0.08596015 
H      -0.03348129      -0.95719811       1.76912195 
H       2.33380100      -1.53905983      -0.35874412 
H       2.72426558      -1.39486320       1.36441207 
