4
 energy: -16.437123478405 gnorm: 0.000040246745 xtb: 6.2.3 (830e466)
S        -2.02507803890848   -0.51120617292871    1.01959221077066
Cl       -1.29238808525409   -2.44986119483326    0.79647446811494
Cl       -3.81778667924244   -0.99540129137089    1.96658105126555
O        -2.36707719659500   -0.05453134086714   -0.28567773015115
4
Properties=species:S:1:pos:R:3 6.2.3=T gnorm:=T -16.319472730522=T pbc="F F F" 0.000220332128=T energy:=T xtb:=T 830e466=T
S      -2.56552119       0.79817265       0.48754781 
Cl      -1.94014868      -2.84917611       1.09882344 
Cl      -3.29759430      -1.88483274       2.22698075 
O      -1.69906583      -0.07516379      -0.31638201 
