13
 energy: -16.669036738276 gnorm: 0.000552439830 xtb: 6.2.3 (830e466)
C         1.84338364383541    0.14325478612697    3.58698318521326
C         1.39767678228170    1.36633751886817   -0.09296188875623
C         1.72863598964088    0.98672443523483    2.34936059271352
C         1.50194886443743    0.52224930376300    1.13227139032516
O         1.85872927507198   -1.24374332203854    3.35833113674871
H         2.57507089318738   -1.44250203916309    2.74563329376676
H         2.74420558572431    0.45059916994492    4.14468335229429
H         0.97866118837429    0.32423898784500    4.23472839483256
H         1.84747618280592    2.04782893362406    2.52400192241849
H         1.36767475363897   -0.54078276570274    0.97694438252414
H         0.42302775208743    1.22913828828959   -0.56025431142705
H         2.15501264297557    1.07227798539865   -0.81977646298581
H         1.52898644593872    2.41902871780918    0.14506501233219
13
Properties=species:S:1:pos:R:3 6.2.3=T gnorm:=T pbc="F F F" energy:=T 0.000448398818=T -16.613908895195=T 830e466=T xtb:=T
C       1.28455340      -0.58809369       3.69549884 
C       1.42652498       1.09163513      -0.25053943 
C       2.64094099       2.27418162       1.77639334 
C       2.09123013       1.74643243       0.85263138 
O       1.87069075      -0.97399144       2.47811167 
H       2.38038188      -0.22785376       2.13529882 
H       2.04233907      -0.35401653       4.45164167 
H       0.69249155      -1.43391249       4.04066901 
H       3.12168338       2.75015774       2.57797381 
H       0.62951628       0.28078859       3.56900840 
H       0.99634157       0.14760884       0.08366626 
H       2.14140055       0.89219690      -1.04822891 
H       0.63239546       1.72951665      -0.63711487 
