17
 energy: -33.113470355054 gnorm: 0.000328502491 xtb: 6.2.3 (830e466)
C         1.81744544928527   -0.12655050516354    3.35791919552531
C         1.10583201118607    0.17565036181892   -0.46986702836464
S        -2.19687499762648    1.51191478016886    1.57964062700667
C         1.78624105884656    0.32293264421116    1.92478611989297
C         1.14400499485389   -0.29069827199817    0.94495040531913
O         1.15615260442573   -1.34168763575069    3.61190993356665
Cl       -0.55458461552663    2.77271310849940    1.80415251819152
Cl       -1.68758808072275    0.11408827944031    3.02953289932650
O        -2.03853165584729    0.87193147091737    0.31315424325974
H         1.55150714986915   -2.02355426389027    3.05738001790935
H         2.86748050260146   -0.18323518587383    3.69123078017721
H         1.31637964568962    0.61876864344135    3.98646101286114
H         2.34508427033952    1.23026911101720    1.73740254371017
H         0.57302224175236   -1.18859905805140    1.14841172045905
H         0.07478413830290    0.37095150530457   -0.76360423233042
H         1.49778254177474   -0.59536243344153   -1.13280962115045
H         1.69007274079263    1.08376744935525   -0.59835113535977
17
Properties=species:S:1:pos:R:3 6.2.3=T gnorm:=T -33.082945947665=T 0.000754729338=T energy:=T xtb:=T 830e466=T pbc="F F F"
C       1.94807739      -0.19865714       3.66143124 
C       1.08595682       0.26701716      -1.22796437 
S      -1.45621188       1.31784546       1.80396771 
C       0.72968228       0.59175282       3.28277268 
C      -0.08240403       0.26508572       2.29209299 
O       2.26112888      -1.23484738       2.77733184 
Cl       2.30002487       0.67294879      -0.00082680 
Cl      -2.92734558       0.15433631       2.77605732 
O      -1.59741712       1.07247365       0.38116978 
H       2.42806748      -0.85383855       1.90279068 
H       2.79279771       0.50123752       3.76796252 
H       1.78310107      -0.66865243       4.63786186 
H       0.55262574       1.47904736       3.87462082 
H       0.05730261      -0.61552577       1.68392831 
H       0.10796967       0.55994645      -0.85292616 
H       1.13266162      -0.80339051      -1.40592732 
H       1.33219248       0.81652053      -2.13204311 
