20
 energy: -28.383099636594 gnorm: 0.000714441853 xtb: 6.2.3 (830e466)
C        -1.83979688991340    0.33030852104930   -0.43186865719044
C         0.46125193234439   -0.18802257082720   -0.04241511477034
C         0.90360646848387    1.09126766147133   -0.35938435580352
C         1.38939500168653   -1.15108444516363    0.35820675056572
C         2.25313273163964    1.39394172632305   -0.27185350595919
C         2.72889872662580   -0.83685508549735    0.44179425902715
C         3.16911863028003    0.43989482716416    0.12759977976032
C        -3.15828499251031   -0.37838186258495   -0.38838969500081
C        -4.22848295413479    0.08286539184154    0.22919658623474
O        -0.83365795391720   -0.60357717392391   -0.08898056462547
H        -1.83484386891468    1.17846656934941    0.26605289998178
H        -1.66571178009603    0.71066221820541   -1.45171463452823
H         0.21252953653315    1.85768089847932   -0.67477252418222
H         1.02781625989519   -2.13836502164734    0.59932827750549
H         2.58481454570517    2.39151870833950   -0.52080031432294
H         3.43515641869298   -1.59135372832641    0.75536606128590
H         4.21766032521158    0.68666597516223    0.19463198003684
H        -3.17153926473332   -1.32641499258848   -0.90695333077424
H        -5.16045190310172   -0.45528245309167    0.22663099582440
H        -4.21951096977597    1.02137483626573    0.75931510693501
20
Properties=species:S:1:pos:R:3 6.2.3=T gnorm:=T pbc="F F F" -28.315223564263=T energy:=T 0.000596274999=T xtb:=T 830e466=T
C      -1.20845148      -0.65539844      -1.19574388 
C       0.43112171      -1.47902050      -0.40031304 
C       0.06339616      -0.14306123      -0.56102261 
C       1.61117078      -1.88063194       0.16789608 
C       0.85896079       0.89308937      -0.15718928 
C       2.42401296      -0.82301828       0.58559677 
C       2.06724822       0.50775176       0.43187798 
C      -2.51118548      -0.40915709      -0.51191855 
C      -2.71752346       0.56109548       0.35749187 
O      -0.70318987      -2.01477658      -0.97085910 
H      -1.12996685       4.15645752       0.78970971 
H      -1.28835620      -0.47446958      -2.27378156 
H      -1.34073445       4.18797050       0.04200186 
H       1.90343575      -2.91032766       0.29130882 
H       0.59635342       1.93323152      -0.27558106 
H       3.37279784      -1.05455938       1.04731999 
H       2.74653392       1.27264563       0.77772607 
H      -3.28890557      -1.11291199      -0.77598068 
H      -3.67661179       0.70564701       0.82373614 
H      -1.93900638       1.25475388       0.62871448 
