20
 energy: -28.385043883687 gnorm: 0.000627222825 xtb: 6.2.3 (830e466)
C        -2.08608057856677    0.59139333173875   -1.15879637248528
C         0.10587218433811    0.79674412814632   -0.22855976915624
C         1.02951851258752    1.63658920657942    0.39603297704555
C         0.47877702998342   -0.50349707210451   -0.54909726885656
C         2.29891647595468    1.18398868644011    0.68834205880779
C         1.75809044506001   -0.94511538577207   -0.25297134275808
C         2.67196626160152   -0.11096757936683    0.36246223710937
C        -2.72417690465166   -0.50016230005362   -0.34475767283384
C        -2.53613349673743   -0.68623186934662    0.94756535415786
O        -1.11410191993931    1.35163912913963   -0.48085440953650
H        -2.85693742792490    1.31836761380919   -1.44301304557967
H        -1.67020045461050    0.16934712056918   -2.08604989474275
H         0.72279131496456    2.64166298844875    0.64047754276304
H        -0.21799753316475   -1.18318716367936   -1.01411720378371
H         3.00286721718064    1.84494612698925    1.17210768352671
H         2.03553305962900   -1.95776197942106   -0.50750158368409
H         3.66586757121854   -0.46519511704614    0.58997172534656
H        -3.38642912711526   -1.13787082692242   -0.91541750518077
H        -3.02508424287486   -1.47995924755548    1.48474777092439
H        -1.88227838693252   -0.04952979059240    1.52023871891581
20
Properties=species:S:1:pos:R:3 0.000653244272=T 6.2.3=T gnorm:=T pbc="F F F" energy:=T -28.336718305572=T xtb:=T 830e466=T
C      -2.55420604       1.28785563      -1.14387985 
C       0.30847264      -0.68098684       0.40223111 
C       0.69708171       0.64240277       0.52885185 
C       1.24411110      -1.65141103       0.08640610 
C       2.02278943       0.99372624       0.33774917 
C       2.56986706      -1.29947036      -0.10221399 
C       2.95911500       0.02331181       0.02334504 
C      -3.30067901       0.09129152      -0.62661340 
C      -3.17098384       0.61573232       0.59367817 
O      -2.48459659       1.75209961       0.22381977 
H      -3.10828996       1.98549490      -1.77050718 
H      -1.55959563       1.10681242      -1.54918115 
H      -0.03425712       1.39835176       0.77434090 
H       0.93977061      -2.68358758      -0.01161671 
H       2.32680895       2.02591840       0.43531808 
H       3.30055765      -2.05696259      -0.34659149 
H       3.99381575       0.29784632      -0.12364854 
H      -3.72524817      -0.77955347      -1.07412191 
H      -0.72644665      -0.95508948       0.55029320 
H      -3.42730687       0.40141764       1.61315085 
