20
 energy: -28.383128068102 gnorm: 0.000499064030 xtb: 6.2.3 (830e466)
C        -1.84114722458189    0.40701602766637   -0.32551710764315
C         0.45284577623295   -0.21702007555112   -0.08366852376145
C         0.92431922866444    1.07691789547612   -0.27395539414305
C         1.36522132518694   -1.24747770884056    0.15104251705034
C         2.28639753802758    1.32774306407710   -0.22478155803510
C         2.71765711366121   -0.98477174695879    0.19645315986030
C         3.18692657056768    0.30673385635485    0.00972599316710
C        -3.18323991072911   -0.25672256639990   -0.28778614054776
C        -4.23202212422065    0.22787678891877    0.34751944875156
O        -0.85724148081022   -0.58441689040658   -0.10523370009655
H        -1.78006970793167    1.19288408061607    0.43937977235288
H        -1.69118140767719    0.86766433629048   -1.31610086924847
H         0.24650237183194    1.89540437847255   -0.46052605744733
H         0.98221953882478   -2.24548872375488    0.29527862705905
H         2.63989887711870    2.33786316334121   -0.37257682196921
H         3.41187367723463   -1.79141843777429    0.37952414176767
H         4.24574485294807    0.51246208452417    0.04731875914104
H        -3.23411466252363   -1.18978233824893   -0.82961644054590
H        -5.18420378373747   -0.27309887464468    0.33673800338548
H        -4.18559656808681    1.15314168684197    0.89779219090248
20
Properties=species:S:1:pos:R:3 6.2.3=T gnorm:=T -28.397584781185=T pbc="F F F" 0.000418659072=T energy:=T xtb:=T 830e466=T
C      -4.11388447       0.71333982      -0.22279045 
C       0.58854806      -0.39193308      -0.06687664 
C       0.99133419       0.92599476      -0.25498641 
C       1.54127881      -1.36851061       0.22081512 
C       2.32938625       1.25869570      -0.13126722 
C       2.87263341      -1.02481913       0.33500058 
C       3.27217482       0.29204850       0.16745492 
C      -2.94123361      -0.17350586      -0.46913846 
C      -1.72561831       0.06592441       0.00022977 
O      -0.70223083      -0.81960134      -0.18573664 
H      -3.82763835       1.58531947       0.36031667 
H      -4.54098996       1.04630718      -1.16843697 
H       0.27116227       1.68655231      -0.51824818 
H       1.21135781      -2.38751288       0.35010387 
H       2.63391432       2.28460067      -0.27821569 
H       3.60312099      -1.78736818       0.56072017 
H       4.31345553       0.56015751       0.26242134 
H      -3.11466061      -1.06349619      -1.05597531 
H      -4.89065620       0.17137830       0.31621145 
H      -1.50066413       0.94193862       0.59940805 
