[Molden Format]
[Geometries] (XYZ)
12

C        1.360315       1.563524      -1.705681
C        0.496394       0.384876      -1.273470
C        1.305193      -0.839179      -0.961986
O        0.478286       2.646218      -1.902814
O        1.217097       3.764573      -2.386997
O        2.496804      -0.926832      -1.024440
H        0.668696       4.512017      -2.114453
H        2.099292       1.806442      -0.931727
H        1.892585       1.334878      -2.636151
H        0.679705      -1.699759      -0.652977
H       -0.222680       0.139019      -2.058728
H       -0.082786       0.653924      -0.386286
12

C        1.485141       1.607959      -1.483997
C        0.645966       0.439071      -1.075101
C        1.416705      -0.795644      -0.790703
O        0.603121       2.662132      -1.671276
O        1.295879       3.798760      -2.208938
O        2.608983      -0.890283      -0.854978
H        0.690618       4.524873      -2.015537
H        2.382359       1.890175      -0.940093
H        1.845742       1.147601      -2.539456
H        0.779210      -1.662940      -0.533236
H       -0.145251       0.274258      -2.153577
H       -0.117590       0.623042      -0.320487
12

C        1.543708       1.670715      -1.324354
C        0.748785       0.471101      -0.912388
C        1.483805      -0.769620      -0.665749
O        0.664608       2.702488      -1.509750
O        1.331392       3.834388      -2.093373
O        2.676164      -0.896885      -0.757022
H        0.693564       4.535404      -1.941390
H        2.508603       1.974013      -0.968880
H        1.728153       0.944892      -2.443997
H        0.824659      -1.630317      -0.439285
H       -0.077784       0.384710      -2.346298
H       -0.105903       0.624413      -0.266072
12

C        1.457726       1.719931      -1.266513
C        0.781123       0.535055      -0.842398
C        1.490330      -0.699582      -0.604108
O        0.609423       2.756434      -1.444936
O        1.325189       3.863956      -2.008698
O        2.696766      -0.860624      -0.705023
H        0.716133       4.600440      -1.873659
H        2.451693       2.032387      -0.995067
H        1.480929       0.807033      -2.611900
H        0.810586      -1.543846      -0.370119
H       -0.056297       0.372384      -2.693903
H       -0.090199       0.726189      -0.231637
12

C        1.403408       1.763038      -1.235765
C        0.757082       0.624468      -0.818595
C        1.429568      -0.636631      -0.590227
O        0.573570       2.796003      -1.429507
O        1.204371       3.935217      -2.004074
O        2.630964      -0.819376      -0.682001
H        0.534980       4.619899      -1.893608
H        2.421974       2.021367      -1.017529
H        1.163867       0.663873      -2.770672
H        0.743060      -1.467907      -0.350349
H       -0.035566       0.590445      -2.994820
H       -0.141425       0.866910      -0.267649
12

C        1.356332       1.815066      -1.232442
C        0.695297       0.693572      -0.831410
C        1.348255      -0.593165      -0.583546
O        0.533380       2.870961      -1.441841
O        1.087205       4.016295      -2.021350
O        2.555424      -0.741100      -0.649696
H        0.359828       4.653115      -1.932795
H        2.397273       2.013614      -1.051637
H        0.900014       0.627347      -2.826164
H        0.680532      -1.423224      -0.355622
H       -0.120639       0.777584      -3.205907
H       -0.239389       0.958361      -0.362987
12

C        1.284249       1.807848      -1.194816
C        0.710465       0.625840      -0.823211
C        1.459978      -0.594168      -0.591365
O        0.512810       2.874346      -1.407028
O        1.261207       3.958893      -1.931013
O        2.658952      -0.697885      -0.647159
H        0.615675       4.674833      -1.954800
H        2.351644       2.002830      -1.101044
H        0.586353       0.452914      -2.980690
H        0.821081      -1.463645      -0.359581
H       -0.145928       0.476362      -3.572594
H       -0.299905       0.740544      -0.459401
12

C        1.272421       1.762038      -1.160888
C        0.737254       0.590007      -0.804309
C        1.547544      -0.576304      -0.568839
O        0.549455       2.844948      -1.384892
O        1.387113       3.903560      -1.837929
O        2.746933      -0.636016      -0.620994
H        0.777789       4.637827      -1.946126
H        2.357632       1.903060      -1.165019
H        0.302966       0.281624      -3.254062
H        0.944202      -1.475153      -0.331613
H       -0.157198       0.255131      -3.888170
H       -0.314383       0.575778      -0.570464
12

C        1.350386       1.712704      -1.154183
C        0.762930       0.566791      -0.778271
C        1.575127      -0.608173      -0.513268
O        0.647113       2.815641      -1.410372
O        1.482412       3.896325      -1.798498
O        2.778519      -0.664532      -0.597560
H        0.849652       4.600317      -2.000897
H        2.426982       1.779148      -1.265226
H        0.097380       0.138103      -3.470297
H        0.984643      -1.496685      -0.219296
H       -0.259333       0.102603      -4.161318
H       -0.306911       0.497458      -0.666524
[GEOCONV]
energy
0.0
23.530178787
77.1519331371
144.549177262
101.581280848
80.2436138619
50.0575342237
37.201566165
34.9116383247
max-force
9.2839110038e-05
0.0094601897956
0.00890390933722
0.00968959453872
0.0093284277854
0.00989063757965
0.00705799876168
0.00383460474533
4.74975661279e-05
max-step
1000.0
1000.0
1000.0
1000.0
1000.0
1000.0
1000.0
1000.0
1000.0
