[Molden Format]
[Geometries] (XYZ)
12

C        1.360315       1.563524      -1.705681
C        0.496394       0.384876      -1.273470
C        1.305193      -0.839179      -0.961986
O        0.478286       2.646218      -1.902814
O        1.217097       3.764573      -2.386997
O        2.496804      -0.926832      -1.024440
H        0.668696       4.512017      -2.114453
H        2.099292       1.806442      -0.931727
H        1.892585       1.334878      -2.636151
H        0.679705      -1.699759      -0.652977
H       -0.222680       0.139019      -2.058728
H       -0.082786       0.653924      -0.386286
12

C        1.409625       1.629491      -1.560550
C        0.566352       0.448319      -1.149197
C        1.336007      -0.781647      -0.865025
O        0.524800       2.677501      -1.752804
O        1.211363       3.819542      -2.297353
O        2.534422      -0.876439      -0.933588
H        0.599994       4.542241      -2.101802
H        2.314471       1.911177      -1.034628
H        1.749987       1.166746      -2.599115
H        0.696198      -1.653371      -0.617701
H       -0.204103       0.293252      -2.216307
H       -0.207996       0.623672      -0.400610
12

C        1.440039       1.699567      -1.429548
C        0.634770       0.486604      -0.998657
C        1.368256      -0.748345      -0.763403
O        0.562355       2.731798      -1.624930
O        1.212798       3.867776      -2.224452
O        2.577365      -0.866689      -0.865186
H        0.564481       4.558662      -2.059207
H        2.407408       2.001389      -1.102003
H        1.589441       0.973690      -2.513959
H        0.713949      -1.615568      -0.553650
H       -0.138613       0.414046      -2.429641
H       -0.233894       0.632897      -0.373840
12

C        1.408294       1.714663      -1.380630
C        0.687409       0.506581      -0.900374
C        1.384936      -0.708401      -0.679208
O        0.566340       2.771396      -1.550176
O        1.221684       3.885005      -2.146474
O        2.607364      -0.836965      -0.803208
H        0.594713       4.594935      -1.969826
H        2.426688       1.979763      -1.162111
H        1.356897       0.847580      -2.646049
H        0.733832      -1.564238      -0.440996
H       -0.029129       0.505518      -2.806761
H       -0.215169       0.666591      -0.333608
12

C        1.396986       1.726239      -1.285590
C        0.767604       0.568605      -0.855079
C        1.452226      -0.671691      -0.652380
O        0.573845       2.747748      -1.478467
O        1.239818       3.863089      -2.058109
O        2.642980      -0.864318      -0.754609
H        0.610813       4.579286      -1.969210
H        2.417871       1.997517      -1.087521
H        1.166682       0.687052      -2.876527
H        0.760859      -1.510660      -0.415434
H        0.050185       0.539270      -3.070130
H       -0.138312       0.776993      -0.311065
12

C        1.447517       1.726488      -1.248175
C        0.791933       0.609343      -0.838757
C        1.442693      -0.660686      -0.598940
O        0.622670       2.769990      -1.452882
O        1.193355       3.907761      -2.026359
O        2.651412      -0.823952      -0.656127
H        0.502115       4.575400      -1.952803
H        2.483582       1.938079      -1.097104
H        0.971212       0.551794      -2.932439
H        0.768126      -1.483811      -0.376703
H        0.036314       0.691098      -3.252330
H       -0.148592       0.860544      -0.389880
12

C        1.340143       1.759948      -1.203396
C        0.760603       0.584931      -0.830208
C        1.502733      -0.626862      -0.592076
O        0.572277       2.823627      -1.414963
O        1.321087       3.908221      -1.924510
O        2.702530      -0.735528      -0.638229
H        0.674347       4.623035      -1.951370
H        2.412996       1.954994      -1.119554
H        0.626064       0.417807      -3.062934
H        0.859252      -1.493720      -0.366539
H       -0.039944       0.452531      -3.586980
H       -0.254297       0.690126      -0.486560
12

C        1.313253       1.731273      -1.165648
C        0.754355       0.554448      -0.814328
C        1.559840      -0.625218      -0.573288
O        0.596905       2.828385      -1.402089
O        1.437115       3.890565      -1.838129
O        2.763982      -0.679969      -0.620881
H        0.821088       4.626294      -1.958695
H        2.394624       1.855405      -1.167072
H        0.346570       0.262991      -3.276167
H        0.956315      -1.523817      -0.339724
H       -0.103685       0.244551      -3.911234
H       -0.303780       0.540933      -0.600041
12

C        1.350386       1.712704      -1.154183
C        0.762930       0.566791      -0.778271
C        1.575127      -0.608173      -0.513268
O        0.647113       2.815641      -1.410372
O        1.482412       3.896325      -1.798498
O        2.778519      -0.664532      -0.597560
H        0.849652       4.600317      -2.000897
H        2.426982       1.779148      -1.265226
H        0.097380       0.138103      -3.470297
H        0.984643      -1.496685      -0.219296
H       -0.259333       0.102603      -4.161318
H       -0.306911       0.497458      -0.666524
[GEOCONV]
energy
0.0
21.7547412454
75.5313996036
137.970542902
91.7184426301
68.3519259506
44.6638477642
36.623744046
34.9116383247
max-force
9.2839110038e-05
0.00917843353107
0.0107944828842
0.00496072285979
0.00743752652722
0.0098272666197
0.00415772101566
0.00137090714905
4.74975661279e-05
max-step
1000.0
1000.0
1000.0
1000.0
1000.0
1000.0
1000.0
1000.0
1000.0
