56
 energy: -94.155257053126 gnorm: 0.000156866377 xtb: 6.4.0 (d4b70c2)
c         0.96554716999974   -2.74177403999975    0.17727162000002
c         1.16832473000018   -4.23932533000001   -0.00732709000009
c        -0.46061281000015   -2.35403843000006   -0.23247500999993
o        -0.76651547000013   -2.21196530999986   -1.41317611000005
o         0.78974222000022   -0.08232139999975   -0.23277365000020
o         1.13933489000016   -1.67997875000005   -3.47719251999990
n         1.87833775000024   -1.99667252000018   -0.67016258000001
c         1.62665881000004   -0.68879063999998   -0.88332230000005
c         2.37922721999985   -0.08253094999992   -2.04904987999982
c         1.46157352000017   -0.33046621999991   -3.28822829999975
n         2.66627241999974    1.31187143000019   -1.80260605999978
n        -1.33469471000015   -2.24546139999986    0.76859922000021
c        -2.73149367999982   -1.90189817000006    0.56162553000010
c        -3.56891233999997   -2.45022377999994    1.70579585000026
c        -2.90516107999983   -0.36998390999976    0.44567554999984
o        -3.52031218999983    0.28546418999994    1.25867307000022
n        -2.33310336000025    0.14155747000007   -0.65984389999975
o        -0.12435088000003    2.47852208999980   -1.42526253999986
o        -0.74487029000024    2.09218530999977    0.71258858999994
c        -2.31928166999980    1.56416543000019   -0.93812610999987
c        -0.92534579000004    2.10978061999980   -0.61017734999978
c        -2.68748764000025    1.83544721999977   -2.38973752999977
h         1.13595318000016   -2.44910077999997    1.21971923000010
h         0.95804688999974   -4.51991736000002   -1.03782475000005
h         0.49839099000004   -4.78977758999985    0.64786629000004
h         2.19326217999990   -4.50971496000007    0.23480977000026
h         0.44076954000011   -1.93833372999997   -2.84620459000008
h         2.40667669000014   -2.50954704999985   -1.36001871000015
h         3.32503996999977   -0.61673320999980   -2.19997117999999
h         1.99583327000015   -0.00862597000007   -4.18793456000020
h         0.56381566999979    0.29166647000004   -3.17294626000024
h         1.81710516000007    1.78003880000006   -1.49465940000000
h         2.96744853000006    1.76219508000006   -2.66061170000012
h        -0.99018959999988   -2.21185341000025    1.71986703000014
h        -3.03182981000008   -2.34691827000014   -0.39498053999977
h        -4.61736501999986   -2.22765621999982    1.53113047000019
h        -3.27527027000016   -1.97537407000008    2.63888434999983
h        -3.44003035000001   -3.52618875000004    1.79034292000024
h        -1.76995086999990   -0.46097822999995   -1.24883763999995
h        -3.03797923000001    2.01625060999982   -0.24373634000014
h        -2.70025139999993    2.90535559000015   -2.57711561000004
h        -3.66832728000007    1.42247481000020   -2.60820543000005
h        -1.95399454999982    1.38066160999975   -3.05122923999977
c         0.51722359000018    2.23847331999974    1.26055915999984
c         0.94182573999997    1.24207740000020    2.15356321000010
c         1.35182380000023    3.29404990999991    0.93955873000014
c         2.21983145999983    1.32383645000026    2.69986159999995
c         3.04958205999986    2.38213519999983    2.38473633000010
c         2.61435277999983    3.36264490999989    1.50796419000002
h         1.02288834000024    4.04841453999992    0.24236526999977
h         4.03869646000010    2.44036060000025    2.81264321000020
h         3.26398492000011    4.18573378000004    1.25238262000009
h         2.53920017000005    0.54118575999993    3.37183802000003
c         0.06254597999988    0.10514940999985    2.41603171999990
o         0.40688003000009   -0.97371238999989    2.84721420000026
h        -0.99395227999993    0.30077797999989    2.17213985000023
56
 energy: -94.095254981624 gnorm: 0.101069760979 xtb: 6.4.0 (d4b70c2)
c         0.90399640013231   -2.65994042400349    0.20193046414061
c         1.07874337496034   -4.17231812406407    0.19623160682198
c        -0.50171634986504   -2.38108605132922   -0.34430702893848
o        -0.70154720991055   -2.27128516809334   -1.55088387773451
o         0.70704336346954   -0.07239095328101   -0.25208565002198
o         1.30705210436985   -1.64921125196627   -3.49802999562963
n         1.83870008434631   -2.01033742688295   -0.69854308418519
c         1.59831999965155   -0.68829007281184   -0.81577181837911
c         2.36769490008229   -0.06204362239101   -1.95975978185942
c         1.55434297186382   -0.28937261867214   -3.27349626088823
n         2.72017996112913    1.30887975526586   -1.67025870220817
n        -1.44478854170895   -2.36353671029564    0.59817088520813
c        -2.82826392458075   -1.92996678108778    0.49850067600272
c        -3.57055660206220   -2.32729116278205    1.76427776075155
c        -2.91385082808721   -0.39031108520552    0.38669148846891
o        -3.43358394633450    0.27777359360687    1.25417544953154
n        -2.47765283002006    0.13044877678150   -0.77504787909078
o        -0.15659272748865    2.27276690316821   -1.29922871718302
o        -0.85033046588022    2.04734869429142    0.88354334155854
c        -2.34156158524600    1.56462466620489   -0.93649182171643
c        -0.96704398891314    2.03239973234797   -0.44639848963351
c        -2.53747739760006    1.94058371863335   -2.39820895030565
h         1.15613314874105   -2.21238825447780    1.17018506982281
h         1.89532317876038   -4.43543476172328   -0.47372446917966
h         0.14735563368018   -4.62945485306160   -0.12723424655257
h         1.32608035079394   -4.42577908124453    1.22424889808560
h         0.51672701461017   -1.88962456264749   -2.97795855412648
h         2.30507111727101   -2.39839752453395   -1.50476341373106
h         3.27704934108486   -0.67478068373689   -1.97816754750001
h         2.10474999462087    0.05435034868155   -4.15519496925462
h         0.65318493280464    0.30141057391350   -3.06089899378417
h         1.99332713398109    1.77758510020450   -1.13444424316778
h         2.77280168640650    1.84594692643817   -2.52959677594048
h        -1.07573393225138   -2.32779788278119    1.54010779774738
h        -3.19056128647023   -2.35391531159765   -0.44614111942498
h        -4.61341512934208   -2.03383273068060    1.68927391228461
h        -3.07109192415227   -1.72820550589873    2.52190133017221
h        -3.56010920443480   -3.41417452680398    1.77017661630948
h        -2.00925662083331   -0.45046132675687   -1.46079715709092
h        -3.13677874993280    2.05047006877963   -0.35798662300303
h        -2.46531568735636    3.01945887182674   -2.50212465317107
h        -3.54138371108358    1.63294654820036   -2.67722924031576
h        -1.76952749661436    1.54279249723900   -3.05732081034295
c         0.42262801849458    2.19437557776115    1.40557092061821
c         1.03508545907144    1.24375218909583    2.23729158934037
c         1.13652217172439    3.30376009522669    0.98908325759981
c         2.40421935551676    1.35378084690898    2.46486860144274
c         3.16093369663283    2.41358329268694    2.00444651907698
c         2.48647147224478    3.39176763778983    1.29183908733211
h         0.55339216891213    3.90922120149981    0.31327297016462
h         4.18070465788741    2.44391931186609    2.35656686424901
h         3.07309517917768    4.21468618773920    0.91302929213132
h         2.86304057345654    0.51805238048103    2.97195030511989
c         0.23343661846380    0.08012087770472    2.60870687673029
o         0.58653263117602   -1.05453729068109    2.84598551268340
h        -0.85907023799919    0.21556447186087    2.56369351360980
56
 energy: -94.079344726298 gnorm: 0.120837709057 xtb: 6.4.0 (d4b70c2)
c         0.90146361691777   -2.77678260812062    0.18440985298723
c         1.03986594176463   -4.29187766922739    0.12795596211360
c        -0.53636746190457   -2.35192549492133   -0.13854791026008
o        -0.79002707125323   -2.25756707671538   -1.33628310196407
o         0.85482404041805   -0.20437341045454   -0.17345163497682
o         1.29162982165514   -1.56151533158294   -3.60936909180039
n         1.82198932387585   -2.15707186855223   -0.75105723048263
c         1.60686055482687   -0.83399152528971   -0.90109850976853
c         2.49781348171541   -0.11557067319483   -1.89251425297427
c         1.67127428189425   -0.27484189636230   -3.20803278061585
n         2.88172477263994    1.21634051946656   -1.48494561299522
n        -1.37400035604197   -2.24987732721306    0.89388371563391
c        -2.74285688607364   -1.89644707523456    0.55737216192074
c        -3.77176775591584   -2.60912592484170    1.42020933776297
c        -2.89063506289549   -0.35772357744823    0.52808594269013
o        -3.47066321744820    0.30449833052839    1.36116310563349
n        -2.43081654553816    0.20297331659887   -0.60561763842120
o        -0.41544565584502    2.76487746564066   -1.47773356925844
o        -0.74879943856631    2.03950978890318    0.66635106728913
c        -2.45174022430704    1.63186133941663   -0.84910618847746
c        -1.07025283521836    2.25123454013714   -0.61209765825446
c        -2.82712870112304    1.82684054657546   -2.31109516859027
h         1.18160907862767   -2.38473078006975    1.16889283911486
h         1.56839169534848   -4.79598544380225    0.93505568591288
h         1.52879999766657   -4.55599282413352   -0.80600011061667
h         0.03458730372970   -4.69315492847501    0.02485887854776
h         0.59808141643311   -1.90824546281371   -3.01636366397323
h         2.18618814905772   -2.51017133111631   -1.62327496974948
h         3.34440597059318   -0.74286018852231   -2.19665249995097
h         2.38648229314315    0.09714160277207   -3.94870258444808
h         0.89521544839639    0.50132862744470   -3.16803034444001
h         1.99063007237621    1.69433010514625   -1.37281596325256
h         3.38928486326142    1.66684001752256   -2.23933614444065
h        -1.14861331495667   -2.48518343234881    1.85229669257568
h        -2.87189002274775   -2.18768232893049   -0.49232890637679
h        -4.71299179880095   -2.28771974803387    0.98421311391536
h        -3.78355267252990   -2.24882532374803    2.44607806950442
h        -3.55121206910747   -3.64682155501027    1.65685751608729
h        -1.77349696383510   -0.30782567500573   -1.18364790267797
h        -3.20925625063647    2.11745065811561   -0.22184480548667
h        -2.97820068515577    2.86342509535461   -2.59857927466058
h        -3.74587486018569    1.28577172102847   -2.51959183128305
h        -2.10252994856437    1.28984134214899   -2.91855039453081
c         0.51168888035803    2.22046643723469    1.20762446934487
c         1.02867406660868    1.19280533187999    2.01210391652636
c         1.23351118390003    3.37643817176557    0.96983724734412
c         2.36823386859610    1.33973091093785    2.36198621381238
c         3.14526037832595    2.42854284332290    2.01774112037750
c         2.54506923173880    3.51246797261405    1.39771680329765
h         0.83873124653359    4.23554386700113    0.45077125299181
h         4.20898461387590    2.44007496144552    2.19994864424047
h         3.06339410799025    4.44239930697936    1.22055526245460
h         2.86390457001352    0.61347003814648    2.98884068735755
c         0.28469466693900   -0.01684803996166    2.35541335913247
o         0.64900094903799   -0.94666548785773    3.04181524318908
h        -0.73842892047961   -0.09547919738175    1.95419314128573
56
 energy: -94.073242948704 gnorm: 0.117698523011 xtb: 6.4.0 (d4b70c2)
c         0.81221740192596   -2.89647616680526    0.21685307315714
c         0.98583995529515   -4.37484745259572   -0.10272296524478
c        -0.54520513161964   -2.39877490083071   -0.29487050338877
o        -0.80050178264700   -2.17784875764387   -1.47547694178921
o         0.79451490131911   -0.21619693352765   -0.38069766343308
o         1.09670895555304   -1.49886955224878   -3.40943884122985
n         1.94381979680861   -2.19297955954466   -0.35853913390851
c         1.72902663565988   -0.91655978544281   -0.73794766262094
c         2.59370193526813   -0.34490804083181   -1.84175096446763
c         1.71729911749635   -0.27456770277580   -3.13252348822948
n         3.08478079104017    0.95630004181169   -1.45036038463332
n        -1.47868916173677   -2.43554788417863    0.65655635891980
c        -2.83700935966838   -2.00265782892123    0.37461025110352
c        -3.66062359755656   -2.66840688812582    1.46524973615894
c        -2.99114423746083   -0.47049028677893    0.51270849586367
o        -3.63655506180890    0.16460520028525    1.31836763947345
n        -2.30652799799625    0.14995653643792   -0.46578228613185
o        -0.53622455869177    2.80140648719419   -1.51568153982752
o        -0.70099848099473    2.17093551691452    0.69134751176259
c        -2.44444217920668    1.57946633217242   -0.66308114304233
c        -1.07888097688791    2.27047987270105   -0.58532253328390
c        -3.09649509273141    1.91659589331871   -1.99631623101121
h         0.96624335718691   -2.88905156191528    1.30203220565703
h        -0.02919357664526   -4.69786154690990   -0.32687226663845
h         1.39192452170393   -4.90517802033870    0.75455883597339
h         1.55609819088033   -4.60798718022429   -0.99865209236418
h         0.34595299545623   -1.70321686127791   -2.81995238888006
h         2.70681431868671   -2.70857821761621   -0.77094813697241
h         3.40793270549803   -1.03921714727623   -2.08190543753639
h         2.33933793937871    0.00343994933976   -3.98941638191455
h         1.03551327471888    0.53583249645987   -2.84144313490709
h         2.38782119991368    1.55374092592738   -1.01171635356297
h         3.26887273834816    1.47719454574339   -2.30150736859868
h        -1.14527418340945   -2.53971734488104    1.60666524358210
h        -3.07334376480790   -2.29680752049426   -0.65541977883034
h        -4.74355290110395   -2.71450684674730    1.39864452825360
h        -3.37986077148180   -2.21544933631128    2.41307026411024
h        -3.50589256398010   -3.73506192209480    1.32466262055863
h        -1.95615210249474   -0.38732391524527   -1.25042874516416
h        -3.04602569780010    1.98901238585191    0.15756106467368
h        -3.11335712150977    2.99657778097103   -2.11178124726978
h        -4.11329998341516    1.53851468216342   -2.05533523486721
h        -2.40714958034732    1.62321456213769   -2.78444280876128
c         0.58759210737731    2.36268236001146    1.15752367299835
c         1.13428946957894    1.39790947425270    2.01826937136681
c         1.39780181381852    3.40337788621280    0.73996691655863
c         2.38285291661477    1.57802370508493    2.60739851717867
c         3.12482283910002    2.65854802760415    2.17181386327524
c         2.67678608641723    3.58408620132591    1.24326913961529
h         0.96694370641567    4.15520760376078    0.09773910095641
h         4.15635857059413    2.84480495678677    2.42888224114477
h         3.25313989753175    4.43503095941539    0.91383263117026
h         2.68029445059280    0.85272475587126    3.35006984625056
c         0.29288875812042    0.23235677356051    2.27934309362128
o         0.70876948780184   -0.88471269930790    2.49757696159654
h        -0.76896426625787    0.52592098808617    2.26416012260090
56
 energy: -94.086964411854 gnorm: 0.118938724692 xtb: 6.4.0 (d4b70c2)
c         0.73157465498060   -3.07063212620460    0.09931641641441
c         0.91184999840550   -4.52200991686590   -0.32360037961548
c        -0.62761638899171   -2.47744720416602   -0.29170133653809
o        -0.88528142085553   -2.44444763299854   -1.49184136108026
o         0.89203616193388   -0.26759045994177   -0.19519301650753
o         1.51305264859810   -1.43984769713971   -3.46818122914217
n         1.83440943424577   -2.29744983026858   -0.44147212980128
c         1.77269022718565   -0.96922473929132   -0.66806258974695
c         2.67799478328670   -0.35104719597585   -1.71262518778254
c         1.88399145899114   -0.15810953230174   -3.04358617767199
n         3.34073673291388    0.83137700315030   -1.21249157480154
n        -1.52871971586797   -2.30740338581565    0.67631502705361
c        -2.91709674500667   -1.98788780530768    0.38953948111864
c        -3.86048886230031   -2.79220756009371    1.26939047736195
c        -3.16487866953355   -0.46182130587079    0.39909264733168
o        -3.89890656184016    0.04144867575645    1.22183833743931
n        -2.40904502929807    0.29547725998335   -0.41718689844541
o        -0.50630427327266    2.34542048189440   -1.52680434515569
o        -0.68483801075632    2.26333176221359    0.73397900412957
c        -2.60319219693037    1.72792641882445   -0.52600670395707
c        -1.13352523043389    2.16190696288441   -0.51940983912801
c        -3.48018028311819    2.20678985432044   -1.67401667758549
h         0.85747402705440   -2.96962761517978    1.18344754994397
h         0.15320856461491   -5.18846439364121    0.08281774727269
h         1.88916620979460   -4.85481036004682    0.01578754432839
h         1.00424498992076   -4.43619371971179   -1.40357090515219
h         0.81556401193518   -1.77169456188189   -2.87129441229905
h         2.48192815458018   -2.78015483254665   -1.04628548607653
h         3.38799682188549   -1.15222202201508   -1.95079962086195
h         2.48587477573186    0.38726393182885   -3.77760950248933
h         1.05067105145178    0.50587476389125   -2.77710889020126
h         2.64758784558367    1.55671697416708   -1.04360280956786
h         4.15786666441618    1.09190657600256   -1.75479696448101
h        -1.27947493909590   -2.20523442800516    1.65210305440737
h        -3.14821505072624   -2.21476387487079   -0.65853086269537
h        -4.81327890836226   -2.33811644862991    1.01387192742787
h        -3.67357684203935   -2.64213994492863    2.33000618237800
h        -3.72865756752587   -3.84674379506333    1.04128253392632
h        -1.83215636868390   -0.12983804052154   -1.13371324487572
h        -3.08011344766836    2.01004924915028    0.42058570748002
h        -3.63786343131907    3.27910647455581   -1.60155651612364
h        -4.43964256888121    1.69960756664862   -1.62382614495307
h        -3.02575593518005    1.89022996296121   -2.60980602325969
c         0.64913747751446    2.41912670818743    1.06683082041569
c         1.22071436487314    1.40691533574283    1.85377186608593
c         1.33926627558458    3.52243747146980    0.59750316258597
c         2.46557949067270    1.74045042205423    2.38054541819153
c         3.15748823562769    2.88623093968987    2.03961199794923
c         2.63002765900097    3.71692923370263    1.06427670279991
h         0.83724055411954    4.13496861158896   -0.13469836606641
h         4.09775785179329    3.09462575998871    2.52675311688157
h         3.19088566702506    4.51981229009044    0.61080535243447
h         3.01692207167918    0.99866989669003    2.93900207635015
c         0.51572408231960    0.18998639545011    2.24962620293045
o         0.99884696433368   -0.69291629103748    2.92453525166986
h        -0.53859009211283    0.25576299468283    1.93651686732759
56
 energy: -94.092365246763 gnorm: 0.105962465071 xtb: 6.4.0 (d4b70c2)
c         0.57304458182622   -3.04873144898564    0.13488547318466
c         0.50941417847184   -4.55241978620092   -0.09473997252728
c        -0.66845102846929   -2.41280729340084   -0.50265088742826
o        -0.84849390816502   -2.12172152222888   -1.68191757993660
o         0.86000400678470   -0.54254224070128   -0.07325418450288
o         1.79847162073602   -1.28977804343311   -3.46473234608805
n         1.68061418452501   -2.48531863960438   -0.61502333684238
c         1.70796297130203   -1.14064641784680   -0.71721447246550
c         2.86782714154813   -0.48463690639336   -1.43637887880073
c         2.35152556657906   -0.14833655909603   -2.87146010603728
n         3.28332513932002    0.66691808614274   -0.66906537420753
n        -1.65640674752132   -2.38319234664152    0.39234866928497
c        -3.04044699094887   -2.09918813372514    0.05220843581083
c        -3.91243208607126   -2.99363904831916    0.91861265197202
c        -3.37013780812348   -0.61827570279972    0.34981288633950
o        -3.96134593449482   -0.26379653654066    1.34671084792588
n        -2.80365125599168    0.21354740294174   -0.54364175239639
o        -0.54166911377359    2.15342436338743   -1.42784722814575
o        -0.71447391996844    2.27045301894368    0.81806142528798
c        -2.64943942394133    1.63758413160754   -0.32051945171057
c        -1.16813354703634    2.01919017116786   -0.41224370470248
c        -3.46496776009913    2.47474229370190   -1.29541684312926
h         0.71683285320010   -2.85304033498791    1.20372726974636
h         1.33561778788217   -4.98455768635703    0.46697037599683
h         0.73218041321781   -4.88141515886518   -1.10628558256980
h        -0.36223376438202   -5.06003463579401    0.31120905830866
h         1.00394506090047   -1.55139783249620   -2.96157308358075
h         2.11139821873518   -3.02129660777734   -1.35342467287628
h         3.70637218240560   -1.16275270810326   -1.63565814520589
h         3.27984608551278    0.05095979278041   -3.41642612306425
h         1.73129370555569    0.75669430391654   -2.92185619515943
h         2.46562813561029    1.05269615019215   -0.20254231718517
h         3.50372456753686    1.45180493786029   -1.27325809134570
h        -1.43306511867355   -2.33469872239711    1.37849804947693
h        -3.27309438640900   -2.32045010406895   -0.99672349022075
h        -4.92802787593108   -3.01973336534327    0.53497009089896
h        -3.87597993539021   -2.70999307488758    1.96769714052232
h        -3.33175862904860   -3.90458354022411    0.79837180927084
h        -2.10854789002254   -0.23331027387853   -1.13037265787151
h        -2.97202057556111    1.85196147149243    0.70567161962290
h        -3.39872549983015    3.52493660547007   -1.02582223533789
h        -4.51172034661131    2.18548984128890   -1.26438654901512
h        -3.10083387033403    2.34992809343831   -2.31239337965150
c         0.64957449829296    2.44653963712704    0.96944972045915
c         1.41204246674476    1.61761567532600    1.80734940209377
c         1.21315403027798    3.63581692066697    0.54302446488390
c         2.75789704147045    1.91079509040531    2.01019544657728
c         3.36755526346102    3.02852973407634    1.47468407398839
c         2.54730629699846    3.91498393901272    0.79575562980909
h         0.57961538016146    4.28644989170423   -0.03891093882918
h         4.43115541773989    3.15962718698573    1.60278557405718
h         2.98517417963109    4.86041703964167    0.51424693280727
h         3.40282201875437    1.29969026757564    2.62396535980632
c         0.76602590258508    0.49370589221117    2.48123173556818
o         1.33280553824645   -0.37949620693176    3.10147849129268
h        -0.33203955752043    0.54638634138371    2.40761507318593
56
 energy: -94.093767734542 gnorm: 0.111717555414 xtb: 6.4.0 (d4b70c2)
c         0.39603800977020   -2.98068972230698    0.01362857748314
c         0.43749697251287   -4.49821144958871   -0.10154207476097
c        -0.88465693604481   -2.43376717184159   -0.62891304008554
o        -0.83387025350980   -1.95343459549589   -1.75785841583344
o         1.10008548896490   -0.45450888431692    0.33229215023015
o         1.88025288841353   -1.47387736082486   -3.30987003688164
n         1.55708701169960   -2.39133241640684   -0.62756628959887
c         1.85319900009675   -1.09863868308213   -0.38140577427354
c         2.98638694265963   -0.61004473154152   -1.25889758884283
c         2.40627133287329   -0.33757148682171   -2.68309827496290
n         3.69714731206234    0.50349174412871   -0.67379611907926
n        -2.02776703067441   -2.80152298230500   -0.04924694611354
c        -3.30565545826484   -2.17664384637968   -0.34664977805700
c        -4.45499208051181   -2.99013299553545    0.22634016258636
c        -3.37369730802001   -0.76829901877397    0.28762246554145
o        -3.83617372955343   -0.61116114872044    1.39686155441802
n        -2.73510146810621    0.18897827268207   -0.41016938544028
o        -0.52412070503528    1.87397496644025   -1.13314596642979
o        -0.69644309606290    2.24845474179226    1.08683233588010
c        -2.65793711216854    1.58619906321625   -0.03166548496527
c        -1.17005308052397    1.94136274328150   -0.12311761127545
c        -3.50331796083074    2.46705697949776   -0.94038202252362
h         0.37031945711944   -2.62511553778997    1.05011226789226
h         0.88441631667326   -4.95673891479783   -0.98182030110499
h        -0.59306982935448   -4.82908779711055   -0.00386819775609
h         0.91314583834514   -4.97821726313841    0.75027373225546
h         0.95682411677844   -1.62170922685607   -3.03002783922815
h         2.04956564568227   -2.94858728354794   -1.30948682947252
h         3.67722814364144   -1.46177576606569   -1.25696351156207
h         3.23163835045221   -0.07163917583350   -3.35133122625679
h         1.64129102223763    0.44437901481176   -2.58477873855638
h         3.04492423383189    1.25225181124425   -0.45230054843810
h         4.47797932562170    0.72500303797599   -1.28281683520589
h        -2.01255619315799   -3.27317932427657    0.84631581592690
h        -3.51797626209884   -1.97257847907457   -1.40335081416147
h        -5.41436292302914   -2.64514446463028   -0.14767566882496
h        -4.52710451079395   -2.85490165070661    1.30285042684343
h        -4.57283188128411   -4.01106735674193   -0.12758950634577
h        -2.32234017067340   -0.03408390208986   -1.30848727005973
h        -3.06729152074593    1.64255632236370    0.98437447287695
h        -3.50642557214512    3.50336283949773   -0.61474742286292
h        -4.54929699669491    2.17337971596391   -0.93884487924977
h        -3.15453952334480    2.54871703210185   -1.96707505924471
c         0.64261153194472    2.59694833666375    1.08067537616306
c         1.51401236423323    1.92241697333973    1.95028231663694
c         1.10752199642229    3.63399203488294    0.29185380390035
c         2.82149710181194    2.39928178477362    1.98912584679338
c         3.27657948327374    3.41470855108277    1.17083811358431
c         2.44376597828141    3.99777919685513    0.22956050211319
h         0.42329304163550    4.20008237255475   -0.32028651256019
h         4.32248895815492    3.67624823083138    1.12071637974667
h         2.81907774329288    4.64835850445932   -0.54549228319556
h         3.37486128759096    1.91059034882924    2.77719918362261
c         1.09287979625952    0.68172787678824    2.59678515373562
o         1.88489289947262   -0.09085230725845    3.09101404566796
h         0.03429486699533    0.38462562406088    2.52557703230470
56
 energy: -94.088370217599 gnorm: 0.123614865895 xtb: 6.4.0 (d4b70c2)
c         0.18557517144869   -3.02770570073457    0.11325132206468
c         0.22590572277451   -4.53341960901758   -0.10823088719312
c        -1.02288979820918   -2.46571458446827   -0.64565704554609
o        -0.93662747032244   -1.78786458704329   -1.66589941773067
o         1.34029511781234   -0.37561381664401    0.54638505087319
o         1.47024416264697   -1.54645248334747   -2.97018018895534
n         1.37404463101020   -2.39372360528924   -0.42722503980212
c         1.86417681712963   -1.15144519563396   -0.23788627112459
c         3.00513117222726   -0.87650554809995   -1.19468414565293
c         2.30591530644694   -0.50782893297973   -2.54164297855388
n         3.81141501432945    0.22541219740630   -0.72227420507441
n        -2.22085512386414   -2.94101123790305   -0.30370684757080
c        -3.39377311668709   -2.24450126899908   -0.80476415725119
c        -4.66948645037258   -3.06972278121611   -0.75356188041346
c        -3.44629544121718   -0.99457949836782    0.10369777380361
o        -3.91484235241135   -1.02274967676110    1.22113158881803
n        -2.96207364174691    0.13978671164041   -0.43467056836419
o        -0.58797882004437    1.60314833006291   -1.21136388484673
o        -0.47736474286016    2.11648793768067    1.00770530799338
c        -2.53566523219372    1.37842954790226    0.18612350392169
c        -1.06758468203384    1.69870516307862   -0.11465327858643
c        -3.42409174061674    2.52160762679647   -0.28311781760785
h         0.09483042452082   -2.62442047301521    1.12839628026294
h        -0.67913379551676   -4.97197609112852   -0.52469909552204
h         0.45276058144076   -4.96325837139130    0.86380963892879
h         1.03786624381624   -4.62354301265191   -0.82575125116802
h         0.63654871855504   -1.47454630646057   -2.46751924949327
h         1.68848995910669   -2.89245958853590   -1.24604758298407
h         3.57459613197797   -1.80848658788434   -1.29384086613285
h         3.04506231165309   -0.29466893057220   -3.32055921291860
h         1.73519224874302    0.42819789309186   -2.47503094460473
h         3.39911715969746    0.74445389562674    0.04954381910505
h         4.18041800289958    0.91302017844070   -1.37089133164841
h        -2.37416655250821   -3.51185463123959    0.51809431324409
h        -3.19049068687223   -1.97091000106763   -1.84743569657212
h        -5.56712235720339   -2.47549361814403   -0.89652628299460
h        -4.64822826875331   -3.61788133813331    0.18528440658737
h        -4.45877844461936   -3.91695110368390   -1.40106917769180
h        -2.70497006269752    0.09843102113802   -1.41410463890722
h        -2.62368124399552    1.13170782526000    1.25123661749809
h        -3.19153317352564    3.40145275866080    0.30998119777358
h        -4.47105963272408    2.27562208975922   -0.12926662436327
h        -3.33754818622794    2.66190906730012   -1.35793830176478
c         0.80223964572122    2.64283641618904    0.99661837560808
c         1.82952274518680    2.12998356746684    1.80421953572498
c         1.06649345090828    3.78460712581301    0.26151943993179
c         3.11438314388857    2.66615465058722    1.79529991965044