13
 energy: -23.811000256129 gnorm: 0.000278422413 xtb: 6.2.3 (830e466)
C        10.39515688876164    1.30560595245019    1.97302466102005
C         9.08320958839076    2.83355113411754    3.21736216638428
C         9.44847366841013    0.48123096413691    1.15389761950473
C         9.09032017681103    0.78570666355361   -0.07811897118187
O         9.79441581999944    1.69213478218112    3.21703274096712
O         8.55103491311983    3.03866374845679    4.42061241197248
O         8.95198820853481    3.57044835970468    2.29273006917746
H         8.78339875914612    2.31959563691231    5.02609165940146
H        11.27499569787050    0.72144341488979    2.25753142850877
H        10.69561405156084    2.20514711343953    1.42820547797832
H         9.05358668971308   -0.39157499481341    1.65622501107287
H         8.40760098277327    0.17008093068707   -0.63801640508563
H         9.46970455490856    1.66175629428389   -0.57647786971999
13
Properties=species:S:1:pos:R:3 energy:=T -23.614862824291=T gnorm:=T 0.000763706427=T xtb:=T 6.2.3=T (830e466)=T pbc="F F F"
C       10.35476454       1.24038159       1.99987528
C        8.89165698       4.34307598       3.73521113
C        9.47986517       0.31083077       1.21234627
C        8.98387007       0.59730264       0.02482086
O        9.95403998       1.37061831       3.34544789
O        8.69963485       2.05487071       3.40444460
O        9.63704784       4.71309414       2.96572850
H        8.41642253       1.89708328       4.31546790
H       11.36514879       0.82855304       2.09924639
H       10.40833698       2.22454968       1.52060737
H        9.26087043      -0.62803594       1.70210897
H        8.35997224      -0.09509384      -0.51300532
H        9.18786960       1.53655965      -0.46219983
