13
 energy: -23.799769294066 gnorm: 0.000416508630 xtb: 6.2.3 (830e466)
C        10.62451951618367    1.92448454103599    1.94601380088073
C         8.99125576066602    2.92942954668703    3.42166817903812
C         9.83081403168243    0.94315039564969    1.12387441847620
C         8.81980382855393    0.22221085489222    1.57344416807556
O        10.09834590202573    2.18885650105488    3.23928366843579
O         8.30349754222972    3.29329267521203    2.33379824942019
O         8.65565622637106    3.24473929936066    4.51763045641092
H         8.56119799027359    2.81956579304917    1.52911059971575
H        11.61769557045309    1.50665934576868    2.14338632177230
H        10.76624424125234    2.86379664788263    1.39045642138325
H        10.18292452027951    0.84867712545451    0.10551696144344
H         8.47660386408660    0.29556141966456    2.59313370600709
H         8.30124100594231   -0.47813414571212    0.94297304894063
13
Properties=species:S:1:pos:R:3 energy:=T -23.783545539297=T gnorm:=T 0.000888665570=T xtb:=T 6.2.3=T (830e466)=T pbc="F F F"
C       10.50113760       1.90307173       1.93984817
C        9.54721913       2.27445125       4.08972356
C        9.72336717       0.94806036       1.07292267
C        8.47905221       1.14257787       0.64591660
O        9.66038487       2.64798092       2.82140200
O        7.67385741       2.18111836       0.91204726
O        8.81611310       2.80972226       4.86020945
H        8.10818195       2.79607050       1.52401349
H       11.24893156       1.35146910       2.52267338
H       11.02099129       2.65067794       1.32725059
H       10.25021358       0.05898824       0.77323293
H       10.20980810       1.42300406       4.35839472
H        7.99054202       0.41509742       0.01265519
