9
 energy: -16.142886858096 gnorm: 0.000345313064 xtb: 6.2.3 (830e466)
C        -5.28258249509632    2.86773967802597   -0.41942116702202
O        -4.49433642993039    2.90290324841739   -1.49356930720500
N        -5.06173838597583    2.39485111085174    0.71789076214522
H        -3.63003365825875    2.48779875548749   -1.30283472733588
H        -4.13904944230905    1.97545005895102    0.83208522544218
H        -6.24683085802735    3.32684862699677   -0.61202079238303
C        -1.13540926975598    1.22160964606888   -0.09828080232796
N        -2.04972265940601    1.67877378018145   -0.59817918411293
H        -0.28640680123788    0.79503509501849    0.36561999280153
9
Properties=species:S:1:pos:R:3 energy:=T -16.187846172099=T gnorm:=T 0.000600852446=T xtb:=T 6.2.3=T (830e466)=T pbc="F F F"
C       -3.96394110       2.95646806      -0.30099188
O       -4.43584884       2.72231802      -1.59430052
N       -3.71664479       1.74636310       0.45389941
H       -3.74278752       2.32381458      -2.13484590
H       -4.52764031       1.17306688       0.64566857
H       -4.75112123       3.52150042       0.20658999
C       -2.58413344       1.09241778       0.27484397
N       -1.56980193       0.57326412       0.14637383
H       -3.03419084       3.54179705      -0.30594747
