12
 energy: -21.242462922124 gnorm: 0.000786664328 xtb: 6.2.3 (830e466)
C        -0.05073704802188   -0.03484341028249    0.44758776051341
N         0.94913233191891   -0.51048851098444   -0.46301653538503
O        -1.26790158873026   -0.16320686104193   -0.21479673492917
O         0.14319244118570    1.27759605240946    0.89743070730056
H        -1.99020123263312    0.03193930154625    0.39118912309246
H         0.05158654178694    1.88851701435158    0.15382484495365
H        -0.00795214827597   -0.64894837773603    1.36081856136220
H         1.87462743755166   -0.39808533576734   -0.06831893698619
H         0.89364757590678   -0.00453411884557   -1.34178159319209
C        -0.24568816920170   -3.38500090277019   -1.18050415051459
N        -0.64121262999168   -4.43026292341007   -1.40425475236353
H         0.12449648850427   -2.41197192746888   -0.96638829385227
12
Properties=species:S:1:pos:R:3 energy:=T -21.305729156631=T gnorm:=T 0.000949243772=T xtb:=T 6.2.3=T (830e466)=T pbc="F F F"
C       -0.63041023      -0.40583868       0.63252241
N        1.60480318      -1.28766937      -0.89191110
O       -1.93227918      -0.11485362       1.01481494
O        0.03447201       0.76999758       0.23305138
H       -2.51594443      -0.57043287       0.39424507
H       -0.59960126       1.31806388      -0.24506440
H       -0.07210915      -0.76642473       1.51443365
H        1.74097002      -0.46604035      -0.32344908
H        2.32367852      -1.54510915      -1.54317480
C        0.34823096      -1.75843005      -1.02882095
N       -0.68721164      -1.41529217      -0.38289797
H        0.21839120      -2.54726047      -1.76195916
