12
 energy: -21.237385632088 gnorm: 0.000849275196 xtb: 6.2.3 (830e466)
C        -0.17808032168122    0.04681794373918    0.21245058918853
N         0.83300211225177   -0.38891606643515   -0.69956795813777
O        -1.40619605095063   -0.27194681827642   -0.35483504971742
O        -0.04820550951058    1.43166308879109    0.43846948181381
H        -2.10252935024974   -0.29372279984915    0.30945015879714
H        -0.83281310727883    1.78677068509558    0.86940863695080
H        -0.03540333515492   -0.49073953481918    1.17272548533173
H         0.61090624843492   -0.02267646647388   -1.62124313674578
H         1.72835477842007   -0.00792019458529   -0.41511822656776
C         0.42871587739216   -3.50209590703707   -0.77101020522405
N         0.24308566761175   -4.62408015734940   -0.69573309608386
H         0.59225299071470   -2.45243377280043   -0.83329667960336
12
Properties=species:S:1:pos:R:3 energy:=T -21.261754039855=T gnorm:=T 0.000978473257=T xtb:=T 6.2.3=T (830e466)=T pbc="F F F"
C       -0.55435604      -0.58585598       0.51379050
N        1.84442224      -0.94869478      -1.09989036
O       -1.86049443      -0.68570014       0.99133019
O       -0.35475545       0.63953766      -0.16394330
H       -2.46087775      -0.79507970       0.24338858
H       -0.70350739       1.34979888       0.38663781
H        0.08225200      -0.61900939       1.41652576
H        2.42506812      -1.00479412      -1.92264755
H        1.63332049      -0.01081963      -0.77187804
C       -0.18627352      -1.73008832      -0.41199716
N        0.85615246      -1.84881485      -1.11861986
H       -0.88786073      -2.54975962      -0.45099655
