12
 energy: -21.565022781305 gnorm: 0.000206971219 xtb: 6.2.3 (830e466)
C         0.64655261294670    1.77990726095684   -1.24860629964234
C         0.38702690585649    0.27760346588115   -1.18023452412354
C         1.65742853794295   -0.51360174351141   -1.02233854444723
O         1.27812269897433    2.02818304481236   -2.48376416295117
O         1.58563118664340    3.41930490509654   -2.56626752396012
O         1.77168318814255   -1.50049345051658   -0.35445652126102
H         1.93430464292852    3.49691603900725   -3.46387210572422
H         1.29400504502879    2.10886293932979   -0.42567893328116
H        -0.29823351789123    2.33620594028066   -1.19575566947404
H         2.50297716675169   -0.10413581498027   -1.60437530795367
H        -0.06972912899475   -0.03548682651369   -2.12373324716380
H        -0.30086933832936    0.04642424015730   -0.36672716001753
12
Properties=species:S:1:pos:R:3 0.000967352400=T gnorm:=T 6.2.3=T pbc="F F F" energy:=T xtb:=T 830e466=T -21.566417485223=T
C       1.28561414       1.11980397      -1.24962816 
C      -0.22593586       0.87666700      -1.26654856 
C       2.05129822      -0.18539296      -1.27572101 
O       1.74018866       1.86844347      -2.35379905 
O       1.32119573       3.22569651      -2.20040974 
O       1.83040923      -1.11288548      -0.55402710 
H       1.72846797       3.64970816      -2.96688980 
H       1.55696916       1.64807579      -0.32081469 
H      -0.51228348       0.40639350      -2.20410615 
H       2.85403439      -0.20204919      -2.03442583 
H      -0.48967630       0.22280275      -0.44102757 
H      -0.75138185       1.82242649      -1.16841232 
