12
 energy: -21.568779981777 gnorm: 0.000179689117 xtb: 6.2.3 (830e466)
C         1.55995485222467    1.41667189518107   -2.05762542965927
C         0.53216083666081    0.58229522175274   -1.29186601107440
C         1.09562713100406   -0.71410237883706   -0.79947799218328
O         1.02224031260404    2.60622961455335   -2.56930517117672
O         0.67603548571017    3.47928389634202   -1.49130385959721
O         2.21752800291634   -1.09931767441221   -0.96846736995323
H         0.76987433885112    4.35240595736581   -1.89319258433593
H         2.42271355429690    1.62664804183214   -1.41370699836972
H         1.90115670382457    0.88871887161833   -2.95122350226432
H         0.35878197620772   -1.32336297483576   -0.23856798526264
H        -0.33261503663117    0.37043664358473   -1.92655576993751
H         0.16554184233079    1.15359288585485   -0.43440732618579
12
Properties=species:S:1:pos:R:3 0.000345813733=T -21.564886000799=T gnorm:=T pbc="F F F" energy:=T xtb:=T 6.2.3=T 830e466=T
C       1.52905691       1.28105060      -2.53467129 
C       0.79328624       0.08473812      -1.98472098 
C       0.62181695      -0.17875822      -0.69175681 
O       0.87485427       2.52676296      -2.37362760 
O       1.09480572       3.02117645      -1.04651871 
O       1.02089577       0.56631231       0.35184273 
H       0.45008613       3.73709135      -0.98518618 
H       2.53954069       1.35822854      -2.10870546 
H       1.61344490       1.19767223      -3.61995422 
H       0.11576274      -1.07794920      -0.36690773 
H       0.38483788      -0.60061898      -2.70732931 
H       1.35061180       1.42379386       0.03183556 
