12
 energy: -21.561953398938 gnorm: 0.000520480341 xtb: 6.2.3 (830e466)
C         1.70418431367564    1.39793559655713   -2.47387043823038
C         1.12410225861759   -0.01755090526703   -0.66410214215954
C        -0.17281893412976   -0.07064358056989   -0.90899690388355
O         0.84811799657217    2.47504594921280   -2.25048869893045
O         2.07945870678934    0.70626232776854   -1.32086376965282
O         1.54567748772393    3.57726459565778   -1.70382187359624
H         1.34094982345556    3.55582192252489   -0.75675820886232
H         2.64102730843742    1.73159383109936   -2.93528487687524
H         1.13825980029778    0.75586672854883   -3.16355860616124
H         1.59321637245758   -0.57336626532951    0.13581132368475
H        -0.80376358096434   -0.69774254463167   -0.30787724750743
H        -0.64901155293286    0.49942234442898   -1.68628855782550
12
Properties=species:S:1:pos:R:3 energy:=T -21.563075417361=T gnorm:=T 0.000731741989=T xtb:=T 6.2.3=T (830e466)=T pbc="F F F"
C        1.35764650       1.43061476      -2.60302455
C        1.17930581      -0.11881813      -0.67252921
C        0.60043270       0.55003141      -1.65901208
O        1.01271336       2.79371502      -2.48343791
O        0.55420614      -0.90798865       0.22695601
O        1.44190909       3.28181626      -1.20913350
H        1.33986602       4.23573372      -1.31921723
H        2.43765184       1.30408602      -2.46171502
H        1.09288290       1.21930638      -3.64383595
H        2.24761562      -0.10976701      -0.51250670
H       -0.40047114      -0.87745542       0.08313566
H       -0.47435886       0.53863565      -1.78177951
