12
 energy: -21.556684661673 gnorm: 0.000351990483 xtb: 6.2.3 (830e466)
C         1.99898842094356    1.40177009882370   -1.88431272526867
C         0.71965660289514   -0.46583319828413   -1.22602044037285
C        -0.05039266406301    0.15423777414397   -0.35138218865421
O         0.93731915699437    2.17936507548021   -2.40142680214631
O         1.68625269440354    0.06704948844308   -2.03511495344497
O         1.33366973371043    3.54221523268934   -2.38367581933670
H         0.79283884770502    3.92019446974400   -3.09071206271212
H         2.17403656103188    1.67212013675415   -0.82812089013755
H         2.91101705936709    1.58662073981258   -2.46883448151011
H         0.66769265978918   -1.53083000429567   -1.40284133936038
H        -0.76204381978481   -0.40330794099163    0.22764168103001
H        -0.01983525299240    1.21638812768040   -0.19109997808615
12
Properties=species:S:1:pos:R:3 energy:=T -21.561501575789=T gnorm:=T 0.000565045017=T xtb:=T 6.2.3=T (830e466)=T pbc="F F F"
C        1.99473791       2.19962173      -1.99486413
C        0.56935552      -0.51882276      -1.23577210
C       -0.16445629       0.03574881      -0.29134988
O        0.87155544       1.45314444      -2.43822143
O        1.12514684       0.06976639      -2.33253485
O        1.67856217       3.53003055      -2.13145068
H        1.35842311       3.68481733      -3.02941338
H        2.19258867       2.01400411      -0.93004535
H        2.87979058       1.90746439      -2.59074087
H        0.83992721      -1.56503605      -1.27166015
H       -0.54264644      -0.55252460       0.52169756
H       -0.41378471       1.08177566      -0.31154474
