12
 energy: -21.511923221207 gnorm: 0.000410055224 xtb: 6.2.3 (830e466)
C         0.92544092762737    1.10118956589892   -2.70560347590082
C         0.01214457186441    0.28427299891549   -1.79871858199254
C         1.82826139882823    1.26288877356713    0.64597811835837
O         0.94321195875230    2.47432653913684   -2.39294392362175
O         1.68709511977831    2.71398698415381   -1.19994358068820
O         2.86198031707712    0.80931790354500    0.54717451742720
H         1.13067107222101    3.34151690950742   -0.71715503484422
H         1.94711988117156    0.70354672789824   -2.68852008448343
H         0.55857627009238    1.10083301868239   -3.73537343964624
H         0.02378181084238   -0.75661796558960   -2.10877358327674
H        -1.00601676067137    0.66215137434663   -1.84975311372959
H         0.35684343241744    0.35174716993858   -0.76610781760724
12
Properties=species:S:1:pos:R:3 6.2.3=T gnorm:=T 0.000694085209=T pbc="F F F" -21.495759239927=T energy:=T xtb:=T 830e466=T
C       1.84982246       1.41566876      -2.40788261 
C      -0.16686453      -0.07824806      -0.96626819 
C       1.28741220      -0.16312526      -0.64281518 
O       0.96378976       2.42958035      -2.09845873 
O       1.65924319       3.51355236      -1.48491789 
O       2.13849188       0.52453708      -1.29808242 
H       0.96842512       3.94675828      -0.96473242 
H       2.82228477       1.81402476      -2.71218599 
H       1.38630570       0.85096515      -3.22396513 
H      -0.57560305      -1.08726279      -0.94874765 
H      -0.44381675       0.42950106      -1.89351057 
H      -0.62038075       0.45320830      -0.12817322 
