12
 energy: -21.559907750382 gnorm: 0.000846372647 xtb: 6.2.3 (830e466)
C         2.25133674525630    1.36008773482348   -2.00519192217824
C         0.61906986256346   -0.27921956236787   -1.39312558513385
C         0.03722096793578    0.36722092486583   -0.39938885154137
O         1.65810153225183    2.44222592091164   -2.64693646679283
O         1.62451376471687    0.13261030010666   -2.22198238070344
O         0.65016307854283    3.04483870356953   -1.83256796987353
H         0.06257011509103    3.44688779838100   -2.48509018775884
H         2.37168277203986    1.56822128550714   -0.93245024300038
H         3.22954444061508    1.28227956864365   -2.49367278025882
H         0.34284576222442   -1.28816893241665   -1.66827513808384
H        -0.73481254283709   -0.11607622135964    0.16893144544552
H         0.27714350159968    1.37889247933524   -0.12605992012033
12
Properties=species:S:1:pos:R:3 energy:=T -21.493033266345=T gnorm:=T 0.000752111788=T xtb:=T 6.2.3=T (830e466)=T pbc="F F F"
C        2.18356323       2.68505375      -2.68962265
C        0.41502963      -0.50106265      -0.99232960
C       -0.56037195       0.02814133      -0.28258392
O        1.29005917       2.32880301      -1.65515480
O        1.61112645       0.06876136      -1.33713725
O        1.82897849       1.35462556      -0.81714496
H        1.65012704       3.45118223      -3.24815650
H        3.11439574       3.08904663      -2.28488053
H        2.39820324       1.83020592      -3.33726098
H        0.40348723      -1.49189271      -1.42342821
H       -1.45580370      -0.52769968      -0.08462140
H       -0.48941456       1.02463524       0.11651080
