8
 energy: -14.331168247805 gnorm: 0.000843352308 xtb: 6.2.3 (830e466)
C         0.34972832667703    2.00601197638826   -1.93599409664450
C        -0.52319419853817    1.02110714766143   -2.04334502037600
O         0.04359660207038    3.26661119296739   -2.34801990370398
O         1.14145812039371    4.14554047908239   -2.13492467538845
H         0.81132897704740    4.98060262256109   -2.49065242498478
H         1.34351164518194    1.89660587498322   -1.52452306941622
H        -1.50128288955377    1.18156291385529   -2.45806464036059
H        -0.27034658327853    0.03313779250093   -1.71267616912547
8
Properties=species:S:1:pos:R:3 6.2.3=T gnorm:=T pbc="F F F" -14.247491320825=T energy:=T xtb:=T 0.000802241760=T 830e466=T
C      -0.77009507       2.46628840      -2.74580529 
C      -1.46579945       1.50709255      -2.55528868 
O      -0.02997029       3.50325890      -2.94327094 
O       0.79603053       3.81739968      -1.79229719 
H       1.23544543       4.62763216      -2.08124468 
H       2.14261118       0.71633253      -1.12299166 
H      -2.08908665       0.67264631      -2.45635595 
H       1.57566431       1.22052947      -0.95094561 
