12
 energy: -21.508451581918 gnorm: 0.000825639952 xtb: 6.2.3 (830e466)
C         1.14661743185390    1.86317553726071   -2.18896460086432
C         0.47010161648537    0.75183661047967   -1.39570067956974
C         2.13839145843406   -2.07458005983244   -1.54876122936407
O         0.40062361099507    3.05386195559493   -2.22907817315786
O         0.39130077221561    3.65659013827044   -0.93036514195334
O         1.70076688252943   -2.90944820376412   -0.92726822611558
H         0.01734644400001    4.52664130951825   -1.11836405011861
H         2.14670076828264    2.06464666099867   -1.78581250093137
H         1.22878581553407    1.59850764955047   -3.24622691362832
H        -0.52049010054528    0.55211046662336   -1.79732908231253
H         1.07334305866964   -0.15433463797450   -1.45644553438199
H         0.37428224154478    1.04993257327435   -0.35483386759738
12
Properties=species:S:1:pos:R:3 6.2.3=T gnorm:=T -21.495091535327=T pbc="F F F" 0.000691949573=T energy:=T xtb:=T 830e466=T
C       1.27026748       1.78812386      -2.21752365 
C       0.78583502       0.60266908      -1.38257281 
C       1.81650073      -0.46991100      -1.26523334 
O       0.37546709       2.87152755      -2.20421428 
O       0.30336730       3.42717865      -0.89105104 
O       1.36886134      -1.66359737      -1.28703888 
H       0.22288601       4.37348819      -1.06591222 
H       2.26354175       2.09452118      -1.86996531 
H       1.31905534       1.52971867      -3.27803132 
H      -0.18981973       0.24147779      -1.75442071 
H       0.39048734      -1.78812104      -1.40390218 
H       0.64132033       0.97186443      -0.35928425 
