8
 energy: -14.333827854483 gnorm: 0.000400958685 xtb: 6.2.3 (830e466)
C         0.36391332869560    1.62037294662535   -2.49542878927039
C        -0.83293596319857    1.77017092194360   -1.96255501844956
O         1.49867794252386    2.30491245220657   -2.21130485887565
O         1.31735453509910    3.29558135987513   -1.20298227715972
H         2.17776030796691    3.73562073034682   -1.20381617324989
H         0.61479421341122    0.90165866150494   -3.26343339211310
H        -1.01403646749774    2.50514353907607   -1.20014676586061
H        -1.65382789700038    1.15823938842153   -2.28132272502108
8
Properties=species:S:1:pos:R:3 6.2.3=T gnorm:=T pbc="F F F" 0.000532153227=T energy:=T xtb:=T -14.266097396052=T 830e466=T
C      -0.51214863       0.71164147      -3.06942801 
C      -0.92563152       1.47710191      -2.24953110 
O       1.77790896       2.83598286      -1.69286419 
O       0.89997135       3.61178713      -0.88856078 
H       1.50342679       4.25268886      -0.49181133 
H      -0.16803551       0.03200805      -3.79225175 
H       1.16091355       2.20970437      -2.10986645 
H      -1.26470498       2.16078536      -1.52667640 
