12
 energy: -21.561948857155 gnorm: 0.000489831639 xtb: 6.2.3 (830e466)
C         1.82882334469143    1.31681139311243   -2.39787263554925
C         0.94006871995181   -0.00494997258107   -0.64393832782062
C        -0.32313842316207    0.04749050627004   -1.02665765726867
O         1.04589453829360    2.46438698006266   -2.28394023917630
O         2.01854832912725    0.62193403184547   -1.20203070980685
O         1.76965892829390    3.51958271534088   -1.68076615046992
H         1.44424979274662    3.55262651326859   -0.76869286862332
H         2.83430968980036    1.56305470790797   -2.75831862166485
H         1.28901059796178    0.70772448442420   -3.13658774292904
H         1.27132091772001   -0.58058517594210    0.20929962520542
H        -1.06764525934223   -0.50934215996270   -0.48983647105486
H        -0.66170117608245    0.64115597625366   -1.85655820084174
12
Properties=species:S:1:pos:R:3 energy:=T -21.555402690383=T gnorm:=T 0.000942595783=T xtb:=T 6.2.3=T (830e466)=T pbc="F F F"
C        1.57267158       0.98741139      -2.09206650
C        0.77875908       0.22104216      -1.06567825
C       -0.53379230       0.29109183      -0.97176577
O        1.02886628       2.23467889      -2.44325776
O        2.88420977       1.12845633      -1.61821658
O        0.79362859       3.03754284      -1.30271950
H        1.67452792       3.17278555      -0.91401083
H        3.43424125       1.52797168      -2.30250479
H        1.55337532       0.45998365      -3.06253675
H        1.38814854      -0.37568290      -0.40524665
H       -1.07546978      -0.26010511      -0.22374090
H       -1.10976626       0.91471371      -1.63415574
