12
 energy: -21.617576202941 gnorm: 0.000463362575 xtb: 6.2.3 (830e466)
C         0.60417103192043    0.96074659878355   -2.85587601007282
C         0.20517008556677    0.46249872254441   -1.49720980785872
C         1.41804026795873   -0.25064183945320   -0.92035671385481
O         1.21214411359377    1.97698165746247   -3.05853660142087
O         1.72426783863425    3.02990718305177   -0.45355010600397
O         1.53698450153572   -1.43744536864572   -0.87245803799404
H         1.67236710159131    2.90341873673042   -1.41254147625391
H         2.14235679616009    3.88076881386992   -0.31130180003791
H         0.32393545881857    0.29138787265284   -3.68608500074031
H         2.18955629146862    0.44510930123237   -0.55569771863566
H        -0.63057797949806   -0.23093682309518   -1.56924026594667
H        -0.00921550775101    1.30832514486662   -0.84284646118097
12
Properties=species:S:1:pos:R:3 6.2.3=T gnorm:=T -21.653155549044=T pbc="F F F" 0.000294264175=T energy:=T xtb:=T 830e466=T
C       0.50262767       1.21196039      -2.87907145 
C       0.28369066       0.57258315      -1.54318979 
C       1.35616496       0.99605445      -0.50691189 
O       1.39655013       1.97237951      -3.14269927 
O       1.29863299       2.36399498      -0.25889083 
O       2.62226070       0.56934028      -0.89623935 
H       1.55243626       2.83494959      -1.06619567 
H       2.87503049       1.04609537      -1.70045834 
H      -0.24443573       0.92665619      -3.64254277 
H       1.15550810       0.50693436       0.45309968 
H       0.29968402      -0.51209588      -1.66980586 
H      -0.70895026       0.85126761      -1.18279446 
