12
 energy: -21.559089951225 gnorm: 0.000776950107 xtb: 6.2.3 (830e466)
C         2.15217609415241    1.17754105176366   -2.47045128851699
C         0.67723869256496    0.39037255846211   -0.82614770120830
C        -0.45121885244685   -0.17950153500038   -0.44491009942765
O         1.69645113820631    2.44636857957743   -2.81938929085233
O         1.14390903440008    0.29166361709302   -2.11033074375180
O         1.44331130579947    3.21817762571799   -1.64352370422369
H         0.75379203025415    3.82853236868274   -1.93618392366009
H         2.91450620564506    1.26064095624778   -1.67785044286288
H         2.59339276530304    0.79784335733854   -3.39715699367938
H         1.30552290595067    0.95444794184498   -0.14460226965777
H        -1.06082893914937   -0.72722010546295   -1.14013134084738
H        -0.77914238067999   -0.11906641626498    0.57478779868825
12
Properties=species:S:1:pos:R:3 energy:=T -21.533874076724=T gnorm:=T 0.000647938202=T xtb:=T 6.2.3=T (830e466)=T pbc="F F F"
C        1.73474248       1.24252644      -3.08371134
C        1.28849131       0.02021209      -0.25257664
C        0.02132073       0.36823340      -0.33500298
O        0.82510887       2.21233136      -2.93169747
O        1.54118571       0.31656310      -3.80075694
O        1.25197434       3.21332181      -2.03311195
H        0.46247564       3.76709165      -1.93849532
H        1.98177232       0.53725862       0.39153582
H        2.64600477       1.42573927      -2.48833911
H        1.69041982      -0.80100210      -0.82285468
H       -0.67014443      -0.14890452      -0.97949753
H       -0.38424155       1.18642888       0.23861814
