10
 energy: -15.384849321265 gnorm: 0.000485304242 xtb: 6.2.3 (830e466)
C         0.97279668640386    1.39398349452623   -2.03643793542394
C        -0.14485963953816    0.92125654771329   -1.11425975447658
O         0.77848412048497    2.69727285917533   -2.52689174356782
O         0.95566201858180    3.63823443553862   -1.46235696740271
H         0.67871097462036    4.46251916894908   -1.88025837300334
H         1.94188910974131    1.33359830344615   -1.52589659367009
H         1.00869098656638    0.79836155892937   -2.95250269556419
H         0.04897367743209   -0.09893976665572   -0.79646658123909
H        -1.10089048394858    0.95998360926091   -1.63037324822217
H        -0.19254745034405    1.56291978911675   -0.23806610743009
10
Properties=species:S:1:pos:R:3 6.2.3=T gnorm:=T pbc="F F F" energy:=T 0.000639939738=T 830e466=T xtb:=T -15.452154219579=T
C       0.85051432       1.29596347      -2.18767596 
C       0.43963641       1.63135210      -0.75111437 
O       0.19025084       2.13614915      -3.10788705 
O       0.74990233       2.96251576      -0.43192135 
H       0.57402462       3.49580053      -1.21994904 
H       1.91565576       1.49477263      -2.32349586 
H       0.65268549       0.23741915      -2.40004931 
H       0.97497435       0.99627434      -0.04252738 
H      -0.75732564       1.96334385      -3.06597316 
H      -0.64340850       1.45559902      -0.63291652 
