12
 energy: -21.517626275662 gnorm: 0.000463234992 xtb: 6.2.3 (830e466)
C        -0.31912898168925    0.71592635274251   -2.49390341273589
C        -1.44248697887171    1.40698249275208   -2.52577363229452
C         3.75806080461256    0.66506368820424   -0.38342272022736
O         0.80656971098568    0.98425981115793   -1.78896272175549
O         0.70619365765917    2.17368736907860   -1.01160984635029
O         3.30214495843995    1.68978207579584    0.03284647322136
H         1.57367788757066    2.18630280467132   -0.55955509797679
H         4.75068260094552    0.29828992658940   -0.08175092486113
H        -0.13939690881011   -0.19567858361266   -3.04860152752773
H         3.21556642386507    0.02378263381584   -1.09393313015828
H        -2.26717828679222    1.08491705121414   -3.13158537270674
H        -1.55540488791764    2.30698437758777   -1.94974808662699
12
Properties=species:S:1:pos:R:3 6.2.3=T gnorm:=T pbc="F F F" -21.559932511947=T energy:=T 0.000917808397=T xtb:=T 830e466=T
C       0.49620102       0.53333087      -2.67144195 
C      -0.52991631       0.94446103      -1.94795445 
C       2.19684731       0.60850002      -0.98860293 
O       1.80664773       0.39090921      -2.31266385 
O       1.42479551       2.70770346      -0.31563826 
O       2.54859790       1.92386522      -0.69564555 
H       1.43205590       3.44567807      -0.94243466 
H       3.13916967       0.06395197      -0.86404231 
H       0.39032251       0.23378483      -3.70543555 
H       1.44247918       0.23972601      -0.27941456 
H      -1.50872883       0.97948128      -2.38695493 
H      -0.44917157       1.26890803      -0.92577099 
