12
 energy: -21.617349630965 gnorm: 0.000822012336 xtb: 6.2.3 (830e466)
C         0.74428189330289    1.06593661025606   -2.73666430647069
C         0.54948268133636    0.61019340326397   -1.32025756288452
C         0.93266575003844   -0.83052252586697   -1.10662088498005
O         1.07469348753320    2.17640303926805   -3.05410310012101
O         1.82959851299651    3.38545322863097   -0.57475797572793
O         1.06945859957208   -1.65161542415325   -1.96549821332876
H         1.62129599926636    3.25129066825667   -1.51128229255399
H         2.37270980032508    4.17370469810639   -0.52527066325510
H         0.55975538148501    0.28224780664619   -3.48988422679574
H         1.08102055272272   -1.08143611449348   -0.03950071076506
H        -0.51905773465728    0.69046293835369   -1.09056733022502
H         1.07328507607803    1.26787167173123   -0.62119273289186
12
Properties=species:S:1:pos:R:3 -21.592534112484=T 6.2.3=T gnorm:=T pbc="F F F" 0.000498573187=T energy:=T xtb:=T 830e466=T
C       0.64149914       1.86134813      -2.99632518 
C       0.00757172       2.06932357      -1.65353282 
C       2.47855149      -1.15688323      -0.13926344 
O       1.13057491       2.76004564      -3.62767892 
O       0.05803242       3.40761990      -1.25268985 
O       1.70778868      -0.57343902      -0.84087898 
H       0.51143970       3.89214501      -1.96287154 
H       3.56569054      -1.15370236      -0.31842286 
H       0.63292431       0.81917152      -3.35264931 
H       2.15793858      -1.74127851       0.73838520 
H      -1.03613311       1.72693513      -1.69852850 
H       0.53331162       1.42870421      -0.93114382 
