12
 energy: -21.561956681504 gnorm: 0.000760881959 xtb: 6.2.3 (830e466)
C         1.78754647017000    1.35446798963034   -2.41868122324173
C         0.95632249758791   -0.04331403219769   -0.69421842606484
C        -0.32093466579906    0.03893053781437   -1.02079122000710
O         1.02827072489891    2.50545404413322   -2.21513342994467
O         2.01799057435682    0.60019337662299   -1.26587113811375
O         1.79664824457293    3.52424056287186   -1.60730612580454
H         1.55271509694190    3.49570222873730   -0.66912812811474
H         2.78060351186207    1.60526119689589   -2.80939334815079
H         1.20894813057565    0.78754518791118   -3.16115225929101
H         1.31663963180490   -0.66471085864694    0.11400504103061
H        -1.04783569440694   -0.53887381226996   -0.48185366419252
H        -0.68761452256522    0.67490357849745   -1.80637607810486
12
Properties=species:S:1:pos:R:3 energy:=T -21.563537537893=T gnorm:=T 0.000897595694=T xtb:=T 6.2.3=T (830e466)=T pbc="F F F"
C        1.74128743       1.31547391      -2.25601919
C        1.04401847       0.31793198      -1.36282135
C       -0.17643053       0.46146760      -0.87441609
O        1.02527333       2.49321490      -2.50740934
O        1.85173692      -0.75921004      -1.13200208
O        0.93408711       3.29289413      -1.33672157
H        1.34669041       4.12862944      -1.59721533
H        2.73180057       1.53332115      -1.83155107
H        1.87759220       0.88325505      -3.25277323
H        1.39043552      -1.38280989      -0.55793558
H       -0.62259440      -0.28169624      -0.23504980
H       -0.75459704       1.33732801      -1.09198538
