12
 energy: -21.563913111036 gnorm: 0.000919052839 xtb: 6.2.3 (830e466)
C         2.04305055070282    1.57251969527780   -1.78847275335847
C         0.85911633767516    1.10143560046382   -2.59195864549814
C         0.02413543149938    0.14403753393665   -2.20150902174492
O         1.85575943953751    1.52212866426494   -0.38479839765677
O         0.97324896295946    2.57299864286688    0.01330285517075
O         0.08481862184012   -0.54862492233639   -1.04585050267846
H         0.60716906784694    2.24543192559995    0.84497406961081
H         2.91183048735512    0.91751797488142   -1.93215504394090
H         2.31950023324223    2.59048204809301   -2.08176723334000
H        -0.81504347782492   -0.16377669401810   -2.80950111792205
H         0.82386714884012   -0.20366313522445   -0.51956043562926
H         0.70184719632588    1.58940266619465   -3.53841377301217
12
Properties=species:S:1:pos:R:3 6.2.3=T gnorm:=T -21.560076161259=T pbc="F F F" 0.000798575817=T energy:=T xtb:=T 830e466=T
C       1.86203176       0.54198408      -2.80047898 
C       1.35131818       1.40083550      -1.68034441 
C       0.55468035       0.94974831      -0.72689393 
O       0.03143651       1.63524396       0.32039122 
O       0.44135918       3.00023864       0.35191732 
O       1.22374218      -0.70617112      -2.91303016 
H       0.05654597       3.29972638       1.18710523 
H       2.92154521       0.31446446      -2.63913947 
H       1.78285607       1.10352758      -3.74506252 
H       0.20368967      -0.07077744      -0.65619975 
H       0.28240221      -0.55711999      -3.05615750 
H       1.67769270       2.42818965      -1.67781704 
