8
 energy: -14.333834521098 gnorm: 0.000802312469 xtb: 6.2.3 (830e466)
C         0.51934347163943    1.56484907585303   -2.48742484024273
C        -0.37098787920232    1.17989341988584   -1.59419753242585
O         1.15916512951052    2.75643313026852   -2.57264997483947
O         0.79343211678399    3.66265375964158   -1.53450594706846
H         1.29619726410425    4.45171577528286   -1.77807579250569
H         0.87606223454946    0.95861110297295   -3.30898249175629
H        -0.80473658309501    0.20029890432788   -1.64102739385844
H        -0.68057575429032    1.83494483176734   -0.80073602730308
8
Properties=species:S:1:pos:R:3 6.2.3=T gnorm:=T 0.000395762308=T pbc="F F F" energy:=T xtb:=T 830e466=T -14.266098933928=T
C       0.81760920       0.74343581      -3.37918829 
C       0.06028187       0.75853954      -2.45437679 
O      -0.20569963       3.19838715      -0.51507933 
O       0.71032950       3.61285244      -1.51988907 
H       0.75316094       2.82216158      -2.08550883 
H       1.47753131       0.70940917      -4.19557885 
H      -0.59743116       0.79662623      -1.63509085 
H      -0.22788202       3.96798808       0.06711202 
