12
 energy: -21.555569645283 gnorm: 0.000478274793 xtb: 6.2.3 (830e466)
C         1.96585253049298    1.44670754590258   -2.29322921213499
C         0.64746113891010    0.02579809576507   -0.96544666759063
C        -0.41590875446808   -0.29001392756775   -0.24789360857695
O         1.86594394782292    2.59368976568647   -3.05199532979430
O         0.75727349054407    1.22479848116599   -1.60392298511370
O         1.88690216604883    3.74410496051478   -2.23234086374596
H         0.95284388571752    3.92963418540396   -2.04665762135614
H         2.80476741904965    1.50889426518255   -1.57839151612113
H         2.15656881891952    0.65264349168652   -3.03006399591055
H         1.48824769272655   -0.64787514395976   -1.08823718605482
H        -0.48347763868286   -1.24193800569403    0.24145412455406
H        -1.23738469708120    0.39344628591363   -0.13905513815487
12
Properties=species:S:1:pos:R:3 energy:=T -21.477439010885=T gnorm:=T 0.000835401501=T xtb:=T 6.2.3=T (830e466)=T pbc="F F F"
C        2.37641954       1.58114298      -2.53181417
C        0.67194983       0.67704064      -1.26703135
C       -0.03444976       0.79323681      -0.30743210
O        1.82479061       2.75886136      -3.01383893
O        1.43843409       0.55553988      -2.32031251
O        1.34593568       3.56131458      -1.93645098
H        0.53117021       3.94361534      -2.29016916
H        2.95504307       1.77969374      -1.61674709
H        3.02473767       1.22874011      -3.33999457
H       -0.42164602      -1.84312667      -0.09686444
H       -0.65583254      -2.54066875       0.16131552
H       -0.66746237       0.84449998       0.52355979
