12
 energy: -21.604377464576 gnorm: 0.000691922437 xtb: 6.2.3 (830e466)
C         1.24492392600457    1.21489272071456   -2.81787204835898
C         0.13707412608533    1.04757079450339   -1.77916650474068
C         1.01610295543033    0.87387516068680   -0.53852469530946
O         2.27051144863670    0.34531915084522   -2.39955313713772
O         1.31359640831068    2.13741328517261   -0.02345904697179
O         2.15595642017112    0.19548640725169   -0.97345451525254
H         2.07860892271892    2.06857781866736    0.55880085288845
H         1.60041384541447    2.25401748565923   -2.83181060080790
H         0.96192164891034    0.89796312478917   -3.82166869755775
H         0.56257207181918    0.23792973356169    0.23844097551420
H        -0.44922475860672    0.14861632946755   -1.95944901330460
H        -0.50323701489492    1.91853798868072   -1.68797356896122
12
Properties=species:S:1:pos:R:3 6.2.3=T gnorm:=T pbc="F F F" -21.538932590305=T energy:=T xtb:=T 830e466=T 0.000701271717=T
C       1.32274009       1.33117618      -3.05047772 
C       0.88295344       2.00794278      -1.78677568 
C       1.59941265       1.47441290      -0.79926146 
O       2.32689413       0.41639364      -2.61388417 
O       1.61418094       1.70074276       0.51946841 
O       2.48005072       0.52321213      -1.20253583 
H       0.96784460       2.38116737       0.73992648 
H       1.76669806       2.02359164      -3.78022794 
H       0.51632119       0.76643161      -3.54056378 
H      -0.44241819      -1.03384847      -0.04392303 
H      -0.77655792      -1.01591944      -0.74509807 
H       0.13110029       2.76489689      -1.73233720 
