12
 energy: -21.579057276762 gnorm: 0.000900753535 xtb: 6.2.3 (830e466)
C         1.68215363724878    1.19265553661812   -2.44404569654753
C         0.04859060861324    0.30841157247787   -0.68790788979284
C         1.27183638816856    0.05137944627229   -1.50969025654156
O         1.00190399047432    2.40547383918867   -2.26139384432687
O         1.39668927379072    3.01731057979135   -1.03745266781717
O         1.91492593541553   -0.96557140310216   -1.47961873139291
H         1.61070157926245    3.92422631062153   -1.29834086552919
H         2.77003111444507    1.32884030405232   -2.38215214539730
H         1.42771860127744    0.90522069061088   -3.46942893984729
H         0.26116271156461    1.12086599538775    0.00563209696646
H        -0.76355466759260    0.63553185837714   -1.33370183845427
H        -0.23305917266812   -0.58443473029576   -0.13788922131953
12
Properties=species:S:1:pos:R:3 6.2.3=T gnorm:=T pbc="F F F" energy:=T xtb:=T -21.546618404583=T 0.000335228351=T 830e466=T
C       1.62889561       1.22178859      -2.69628707 
C      -0.10973952       0.57380426      -1.18899105 
C       1.27274595       0.15566862      -1.66992180 
O       0.46408805       1.97007162      -2.89638381 
O      -0.31915255       1.86019143      -1.69560188 
O       1.92249353      -0.78214985      -1.32468316 
H       2.33940187       2.34681921       0.62218540 
H       2.45353389       1.83356378      -2.29985580 
H       1.92143815       0.78264625      -3.65222913 
H       1.82949710       2.90391379       0.43412839 
H      -0.84912587      -0.14890158      -1.56814043 
H      -0.16497621       0.62249388      -0.10020966 
