12
 energy: -21.539822907908 gnorm: 0.000364578843 xtb: 6.2.3 (830e466)
C         1.92773859129660    1.75576779611055   -2.93286666277781
C         0.17714353793036   -0.06069336023228    0.20975957722391
C         1.20604135783109   -0.73478438313317   -0.16638171060764
O         0.54512395607294    1.98414497934863   -2.83124969517182
O         0.24304681778679    2.68094239497705   -1.63067605911573
O         2.14970226188549   -1.32095040304401   -0.51797560294151
H        -0.14151587088047    3.51597322384824   -1.93249316462120
H         2.48704296626081    2.69488545123620   -2.99251861577824
H         2.29828977732791    1.15715184614257   -2.09756190487471
H         2.03155539341300    1.19942136090102   -3.86225279549695
H        -0.50609063094714   -0.43037301313532    0.94725652458937
H        -0.02907815797437    0.89832410697978   -0.22875989043030
12
Properties=species:S:1:pos:R:3 6.2.3=T gnorm:=T -21.559756338347=T pbc="F F F" 0.000531485506=T energy:=T xtb:=T 830e466=T
C       1.91844001       1.60016518      -2.48110969 
C       0.50254185      -0.26735972       0.21820237 
C       0.90027421       0.11635340      -0.98098492 
O       0.76882426       2.11427517      -3.08104532 
O       0.49487516       3.42437703      -2.62913303 
O       1.72412756       1.19661454      -1.16105915 
H      -0.11062801       3.31313323      -1.88006182 
H       2.72139429       2.34546692      -2.45666564 
H       0.60045866      -0.39362667      -1.89002805 
H       2.18923187       0.75712881      -3.13347279 
H      -0.12720771      -1.12781897       0.33635311 
H       0.80666785       0.26110109       1.10328492 
