12
 energy: -21.540069363449 gnorm: 0.000626113382 xtb: 6.2.3 (830e466)
C         1.77340007327205    1.44036968468651   -3.00525849378622
C         0.26284441555176    0.17379435150791    0.26638177557455
C         1.30981313874312   -0.52074593576773   -0.00993790539226
O         1.03690164358854    2.63182197696864   -3.01362081804867
O         0.28052820646312    2.72931731662888   -1.80275707834956
O         2.26085572222467   -1.13523903238631   -0.28151308278307
H        -0.07974296600710    3.62324378631050   -1.86271747387631
H         2.48199931599274    1.41284549922341   -2.17285280547835
H         2.30951811413863    1.45734337568029   -3.95217275793542
H         1.11894391426038    0.56557970525107   -2.95955314357508
H        -0.43102061343930   -0.12289777178810    1.02668373535481
H         0.06513903521105    1.08446704368471   -0.26847195170454
12
Properties=species:S:1:pos:R:3 6.2.3=T gnorm:=T pbc="F F F" energy:=T 0.000905417293=T xtb:=T 830e466=T -21.513359004339=T
C       1.96460202       1.47922233      -2.08342824 
C       1.99414546       0.97536339      -0.65921692 
C       1.87466222      -0.27426983      -0.34851444 
O       0.69340062       1.91181374      -2.49693036 
O       0.34637210       3.10976462      -1.79930241 
O       1.82463371      -1.40314251      -0.07817495 
H      -0.60265767       3.17488689      -1.96626005 
H       2.68684908       2.29635990      -2.19606534 
H       2.19223391       0.67872162      -2.79040928 
H      -1.04127626      -0.01032572      -2.12938415 
H      -1.52671410      -0.32046028      -1.60429501 
H       1.98292891       1.72196584       0.11619114 
