5
 energy: -9.318186810480 gnorm: 0.000385694263 xtb: 6.2.3 (830e466)
C         0.43057914751618    0.34238497184735    0.10018859776749
C         1.41830277446071   -0.48057111080445    0.01016538251067
O         2.30837825986865   -1.22335538726385   -0.06929890731486
H        -0.53930374611359    0.08760323870081   -0.27877389856993
H         0.55174356426806    1.30554828752014    0.55500882560663
5
Properties=species:S:1:pos:R:3 0.000394922577=T 6.2.3=T gnorm:=T -9.278695582518=T pbc="F F F" energy:=T xtb:=T 830e466=T
C      -0.21073862      -0.15817718      -0.29288952 
C       0.94055220      -0.13120216       0.02942920 
O       2.19917027      -0.15041995       0.37170688 
H      -1.21111477      -0.20318516      -0.59159350 
H       2.45183092       0.67459446       0.80063694 
