12
 energy: -21.518818570189 gnorm: 0.000728720168 xtb: 6.2.3 (830e466)
C         2.13043086153722    1.17335932067239   -1.38276748327418
C         1.26089007926152    0.33342419691865   -0.82725131644108
C         1.47181260964483   -1.12116665816907   -0.86297096719877
O         0.14353263405474    3.66083923919440   -2.09523612810088
O        -0.63407547318428    2.63985887373772   -2.70546523757632
O         2.37422000832221   -1.67650225567070   -1.43487579261397
H        -0.03050666909826    1.88340544623581   -2.68333445161598
H         2.00271441110360    2.24304258389976   -1.35953842585520
H         3.00922926226565    0.78663503997069   -1.87490846225282
H         0.71182866933554   -1.69962953590277   -0.30252149514711
H        -0.42657986734701    4.43404238897563   -2.19214274395494
H         0.37570347410655    0.68280136013654   -0.31479749596446
12
Properties=species:S:1:pos:R:3 6.2.3=T gnorm:=T pbc="F F F" 0.000373687856=T energy:=T -21.509916496935=T xtb:=T 830e466=T
C       0.71807568       1.20057347      -1.19424261 
C       0.39617694       0.09786051      -0.50231866 
C       1.33379710      -1.00880020      -0.43042796 
O       0.44205728       3.29085253      -2.06612979 
O      -0.11175814       2.24007699      -1.28810469 
O       2.42086390      -1.04507613      -0.95493163 
H       2.44357811       2.84180447      -3.83612037 
H       1.67022228       1.28398311      -1.70595935 
H       2.91719142       2.32565121      -4.17604120 
H       0.96489534      -1.86263363       0.16893466 
H      -0.25537236       3.96242247      -2.05580535 
H      -0.55052754       0.01339520       0.00533694 
