13
 energy: -23.795622775422 gnorm: 0.000827197199 xtb: 6.2.3 (830e466)
C         9.52702600079673    2.78007890475764    2.39519768965845
C         8.24742905670527    0.83272402242251    1.33206438272179
C         8.60170811913277    2.28507684117043    1.27327582696627
C        11.26149874823669    1.32980140430545    3.09431162484064
O        10.00698150681564    1.74714855520798    3.22624744583109
O         8.20685395902369    3.05512429710898    0.44002933362091
O        11.71189856254356    0.41227107676164    3.70206724553971
H        11.85023878685355    1.92868992328737    2.36226328137739
H        10.35438219386524    3.34302612887485    1.94170578042317
H         8.95058479574405    3.46855848825367    3.02348774460549
H         7.53924095801858    0.58920673868764    0.54536363591104
H         7.82560735048082    0.60178610668372    2.30821664578067
H         9.14634996178325    0.22909751247808    1.21606936272357
13
Properties=species:S:1:pos:R:3 energy:=T -23.788691509468=T gnorm:=T 0.000962433389=T xtb:=T 6.2.3=T (830e466)=T pbc="F F F"
C       10.31221016       2.70465825       2.37080372
C        8.55405636       0.87312935       1.07672428
C        8.02803486       2.00600852       1.92158515
C       10.89032021       1.58680582       3.21334580
O        8.91999993       2.86365595       2.47114188
O        6.86383471       2.21176718       2.10829296
O       10.26627371       0.75756816       3.80264193
H       11.99737867       1.61235654       3.22506955
H       10.64444059       2.55939465       1.33306840
H       10.73690098       3.64882238       2.72905381
H        7.70435982       0.33141556       0.67191233
H        9.15158073       0.19542627       1.68109149
H        9.16040926       1.25158138       0.25556871
