10
 energy: -13.498323393432 gnorm: 0.000384083066 xtb: 6.2.3 (830e466)
C         9.25408985719822    2.39872247176302    2.05972953928195
C         7.83148356176586    2.56701358132314    1.60953811707329
C         6.79077248980349    2.67606457674766    2.41375601257321
O         9.45141547066652    2.47783865703942    3.44768883117785
H         9.06593406460929    3.30310426813675    3.76206249574422
H         9.61219117061508    1.40618195663501    1.76513830616197
H         9.87914082543929    3.14353279873353    1.53778562896711
H         7.71206609497578    2.59770379385895    0.53508712294690
H         5.79095711575546    2.79910653507047    2.03560441774850
H         6.89244934917099    2.62744136069205    3.48591952832506
10
Properties=species:S:1:pos:R:3 energy:=T -13.513544136727=T gnorm:=T 0.000560597585=T xtb:=T 6.2.3=T (830e466)=T pbc="F F F"
C        8.92886939       2.42299771       1.39620054
C        8.11799283       2.70719259       2.63104768
C        6.81058890       2.49669909       2.69982378
O        8.78094452       3.20452988       3.71890739
H        9.71836770       3.30306283       3.51897488
H        8.85237220       1.37092346       1.12761389
H        9.98116308       2.66342669       1.54491236
H        8.55851196       3.00971596       0.55748307
H        6.26894280       2.10724684       1.85948373
H        6.26274662       2.71091494       3.59786268
