13
 energy: -23.848070124377 gnorm: 0.000352509967 xtb: 6.2.3 (830e466)
C         8.26926661024300    1.75966181699391    1.67542204408963
C        10.68756038707085    1.98480027044602    1.75539342463177
C         9.56431543247552    1.14293319620529    1.17022572293516
C         9.39749149904668    1.99857916380095    3.79934940711416
O        10.57741923319427    2.06471090233723    3.17211217622379
O         8.26906566221265    1.84860644360826    3.09583723640061
O         9.35267108619356    2.06167231956812    4.98932938186708
H         8.13476983028188    2.76672672862803    1.26068589598992
H         7.39501710883823    1.15472166331639    1.42351259533999
H        11.67300314877166    1.55249802945872    1.56578420079814
H        10.66145468170290    3.00153065389713    1.34331128766342
H         9.59939988247018    1.15215669946159    0.08307440051243
H         9.64827543749861    0.11420211227837    1.52575222643390
13
Properties=species:S:1:pos:R:3 energy:=T -23.751541892022=T gnorm:=T 0.000752487411=T xtb:=T 6.2.3=T (830e466)=T pbc="F F F"
C        8.36621012       1.73188803       1.94673033
C       10.80171012       1.92125112       1.66839104
C        9.56069791       1.19295778       1.16519467
C        8.66449535       2.02173308       3.40409055
O       11.00484585       1.62776149       3.02749261
O        9.92873465       2.04079499       3.85333844
O        7.81314025       2.30671562       4.19931394
H        8.02510854       2.68095014       1.52179255
H        7.51753420       1.04705523       1.91765058
H       11.71808565       1.55400298       1.20258885
H       10.71861289       3.00527919       1.50736381
H        9.42583434       1.34795439       0.09552795
H        9.68470013       0.12445597       1.35031468
