[Molden Format]
[Geometries] (XYZ)
12

C        1.305317       1.374204      -2.215960
C        0.706936       0.658641      -1.000643
C        1.182490      -0.757603      -0.878808
O        0.676286       2.594915      -2.493713
O        0.962958       3.527461      -1.449216
O        1.479095      -1.305043       0.143344
H        0.783369       4.375013      -1.876261
H        2.382241       1.528029      -2.072374
H        1.137181       0.799520      -3.131585
H        1.225945      -1.294021      -1.849051
H       -0.380501       0.624986      -1.123990
H        0.927782       1.213397      -0.087643
12

C        1.138910       1.323318      -2.254523
C        0.572366       0.658755      -1.013114
C        1.364554      -0.730908      -0.940353
O        0.801973       2.633989      -2.581765
O        1.134032       3.504618      -1.504115
O        1.589826      -1.246929       0.097648
H        0.990531       4.376834      -1.893011
H        2.369113       1.435630      -1.916353
H        0.974631       0.748317      -3.159339
H        1.460997      -1.218691      -1.915589
H       -0.487934       0.402627      -1.066880
H        0.796264       1.195271      -0.096997
12

C        0.973307       1.298597      -2.269381
C        0.431658       0.666398      -0.994709
C        1.509419      -0.654524      -0.995203
O        0.903334       2.622816      -2.633978
O        1.257185       3.457767      -1.543697
O        1.682774      -1.185108       0.044616
H        1.166407       4.342778      -1.921836
H        2.348605       1.361189      -1.674744
H        0.804817       0.720278      -3.165029
H        1.631899      -1.075209      -1.985772
H       -0.568552       0.236421      -0.985838
H        0.671039       1.195996      -0.084736
12

C        0.816096       1.289303      -2.276094
C        0.294181       0.731123      -1.009359
C        1.675752      -0.608467      -1.024401
O        0.952083       2.587036      -2.648399
O        1.339346       3.396905      -1.556384
O        1.798207      -1.149809       0.010900
H        1.271222       4.290438      -1.921739
H        2.442179       1.270553      -1.473606
H        0.617012       0.725142      -3.177368
H        1.786790      -0.990856      -2.023051
H       -0.667560       0.229180      -0.978474
H        0.548464       1.243215      -0.095789
12

C        0.644937       1.285318      -2.287199
C        0.154957       0.809927      -1.080846
C        1.821769      -0.536540      -1.066130
O        0.927680       2.531772      -2.650444
O        1.373790       3.326996      -1.562832
O        1.878810      -1.086112      -0.023895
H        1.327940       4.221922      -1.923588
H        2.521438       1.121253      -1.347994
H        0.420877       0.737964      -3.198375
H        1.894031      -0.908599      -2.069373
H       -0.776538       0.269037      -1.039365
H        0.424591       1.309723      -0.167521
12

C        0.454713       1.308842      -2.322296
C       -0.002411       0.898117      -1.133384
C        1.973952      -0.521643      -1.059960
O        0.909705       2.528286      -2.686240
O        1.404001       3.276041      -1.584129
O        1.939664      -1.097165      -0.034911
H        1.343286       4.189148      -1.898293
H        2.599116       1.067539      -1.226280
H        0.180544       0.792279      -3.237380
H        2.013976      -0.897165      -2.077072
H       -0.908780       0.320558      -1.074263
H        0.294007       1.384659      -0.218544
12

C        0.271190       1.329815      -2.354236
C       -0.170304       0.959818      -1.161362
C        2.120358      -0.434515      -1.056978
O        0.909506       2.471587      -2.712299
O        1.461571       3.168071      -1.603267
O        2.002222      -1.060311      -0.066666
H        1.396357       4.094779      -1.872573
H        2.632727       0.960574      -1.073693
H       -0.043841       0.846854      -3.273141
H        2.130796      -0.781763      -2.090364
H       -1.041668       0.336224      -1.077666
H        0.165856       1.430747      -0.253382
12

C        0.134541       1.354714      -2.363416
C       -0.291866       1.010147      -1.162565
C        2.301068      -0.333754      -1.017387
O        0.952539       2.380503      -2.715057
O        1.560888       3.022541      -1.603752
O        2.092648      -1.034676      -0.084932
H        1.488023       3.962044      -1.822342
H        2.713876       0.853332      -0.900798
H       -0.224643       0.912591      -3.284452
H        2.284050      -0.634839      -2.071208
H       -1.124648       0.341649      -1.054618
H        0.094197       1.460451      -0.265372
12

C        0.051137       1.435520      -2.381206
C       -0.391787       1.112431      -1.181987
C        2.444791      -0.283261      -0.938343
O        1.065957       2.280132      -2.708378
O        1.724819       2.848327      -1.587372
O        2.106640      -1.066637      -0.102505
H        1.668501       3.800671      -1.749782
H        2.812842       0.726529      -0.700306
H       -0.349574       1.057415      -3.311757
H        2.415445      -0.516975      -2.016473
H       -1.207329       0.425913      -1.068620
H        0.047658       1.519435      -0.289170
[GEOCONV]
energy
0.0
16.3444167362
53.9031194262
101.27921205
108.486877112
90.1453141931
62.8367863377
41.135288813
33.4656143161
max-force
4.00397785616e-05
0.00823688014941
0.0087747354438
0.00949880543175
0.00754212197862
0.00789134346393
0.00871117628585
0.00700852767091
9.1339642542e-05
max-step
1000.0
1000.0
1000.0
1000.0
1000.0
1000.0
1000.0
1000.0
1000.0
