[Molden Format]
[Geometries] (XYZ)
12

C        1.305317       1.374204      -2.215960
C        0.706936       0.658641      -1.000643
C        1.182490      -0.757603      -0.878808
O        0.676286       2.594915      -2.493713
O        0.962958       3.527461      -1.449216
O        1.479095      -1.305043       0.143344
H        0.783369       4.375013      -1.876261
H        2.382241       1.528029      -2.072374
H        1.137181       0.799520      -3.131585
H        1.225945      -1.294021      -1.849051
H       -0.380501       0.624986      -1.123990
H        0.927782       1.213397      -0.087643
12

C        1.113189       1.320645      -2.240147
C        0.534566       0.632234      -0.982416
C        1.311852      -0.702975      -0.918620
O        0.776991       2.630086      -2.561830
O        1.099649       3.495636      -1.477311
O        1.544580      -1.216665       0.120940
H        0.957003       4.369108      -1.863776
H        2.286193       1.419827      -1.905430
H        0.958442       0.749641      -3.146740
H        1.415173      -1.187566      -1.893218
H       -0.520795       0.357592      -1.028522
H        0.760171       1.175070      -0.070760
12

C        0.940775       1.282476      -2.242427
C        0.386834       0.623029      -0.971374
C        1.415194      -0.598704      -0.974134
O        0.862893       2.604866      -2.595277
O        1.196482       3.440076      -1.496156
O        1.632292      -1.118888       0.070229
H        1.115501       4.324491      -1.877417
H        2.221216       1.305024      -1.672122
H        0.793557       0.706398      -3.141924
H        1.550738      -1.020349      -1.962875
H       -0.601201       0.169111      -0.955417
H        0.619949       1.176653      -0.073320
12

C        0.791162       1.250969      -2.227671
C        0.267644       0.647367      -1.001034
C        1.531248      -0.498239      -1.039624
O        0.891554       2.539541      -2.590965
O        1.267438       3.383908      -1.512079
O        1.745299      -1.033221       0.010247
H        1.222196       4.261726      -1.911814
H        2.296898       1.150455      -1.455766
H        0.638827       0.674567      -3.133740
H        1.656115      -0.882877      -2.038089
H       -0.675906       0.116392      -0.964828
H        0.504236       1.198059      -0.103227
12

C        0.686457       1.230226      -2.199944
C        0.177946       0.680577      -1.034796
C        1.689937      -0.420040      -1.089240
O        0.871247       2.481495      -2.558006
O        1.328011       3.352575      -1.518646
O        1.813205      -0.983894      -0.038712
H        1.328136       4.205325      -1.964214
H        2.430552       0.950135      -1.310126
H        0.534605       0.664493      -3.127173
H        1.784851      -0.783397      -2.090636
H       -0.741500       0.117581      -1.002003
H        0.417550       1.196009      -0.118359
12

C        0.507124       1.262521      -2.262615
C        0.050163       0.791860      -1.093138
C        1.922129      -0.460718      -1.063237
O        0.886299       2.493256      -2.615814
O        1.370614       3.273668      -1.528013
O        1.924635      -1.018866      -0.019818
H        1.381808       4.166481      -1.904574
H        2.562228       0.970313      -1.233618
H        0.289895       0.726758      -3.185639
H        1.958035      -0.837536      -2.073349
H       -0.822522       0.166531      -1.045819
H        0.312752       1.292770      -0.176805
12

C        0.334742       1.290771      -2.309186
C       -0.104584       0.889288      -1.123303
C        2.135648      -0.432057      -1.033646
O        0.916673       2.459155      -2.655562
O        1.448621       3.168124      -1.543370
O        2.045202      -1.037238      -0.026267
H        1.417186       4.088806      -1.839029
H        2.638427       0.931551      -1.081903
H        0.047985       0.799967      -3.233238
H        2.144134      -0.791944      -2.060888
H       -0.957289       0.240604      -1.050921
H        0.205627       1.369269      -0.211198
12

C        0.169913       1.323867      -2.340083
C       -0.253881       0.959354      -1.143980
C        2.326327      -0.327587      -1.005323
O        0.953949       2.376402      -2.682323
O        1.548483       3.023833      -1.565913
O        2.136923      -1.019756      -0.061212
H        1.485758       3.961604      -1.795033
H        2.719953       0.840945      -0.907094
H       -0.172078       0.876915      -3.265118
H        2.310753      -0.638386      -2.056183
H       -1.071781       0.272121      -1.044351
H        0.114109       1.416076      -0.242667
12

C        0.051137       1.435520      -2.381206
C       -0.391787       1.112431      -1.181987
C        2.444791      -0.283261      -0.938343
O        1.065957       2.280132      -2.708378
O        1.724819       2.848327      -1.587372
O        2.106640      -1.066637      -0.102505
H        1.668501       3.800671      -1.749782
H        2.812842       0.726529      -0.700306
H       -0.349574       1.057415      -3.311757
H        2.415445      -0.516975      -2.016473
H       -1.207329       0.425913      -1.068620
H        0.047658       1.519435      -0.289170
[GEOCONV]
energy
0.0
11.9608032166
41.8126473633
78.9452725953
93.7579857064
81.0157572162
61.2023999489
39.898639628
33.4656143161
max-force
4.00397785616e-05
0.00733642773985
0.00757883565377
0.00520633119172
0.00498025147175
0.00871245666146
0.00886916490354
0.00621562796022
9.1339642542e-05
max-step
1000.0
1000.0
1000.0
1000.0
1000.0
1000.0
1000.0
1000.0
1000.0
