[Molden Format]
[Geometries] (XYZ)
12

C        1.118031       1.453364      -2.277758
C        0.677185       0.107669      -1.712839
C        1.321484      -0.199573      -0.387725
O        0.358189       2.428970      -1.590167
O        0.865286       3.720832      -1.840763
O        2.195377       0.434015       0.127564
H        1.304459       3.968461      -1.012990
H        2.188058       1.610002      -2.090496
H        0.926835       1.516017      -3.356155
H        0.912538      -1.111026       0.091007
H        0.928211      -0.698568      -2.405228
H       -0.406653       0.109438      -1.580249
12

C        0.822408       1.446181      -2.189306
C        0.439514       0.140504      -1.478677
C        1.198535      -0.206140      -0.252652
O        0.140860       2.604911      -1.873862
O        1.029794       3.639209      -1.480382
O        2.180904       0.357887       0.145780
H        0.709659       3.914160      -0.617585
H        1.917949       1.490196      -1.993685
H        0.878942       1.286228      -3.275331
H        0.775964      -1.077727       0.288936
H        0.854710      -0.790621      -2.289237
H       -0.588489       0.423373      -1.308882
12

C        0.628841       1.459824      -2.053346
C        0.254050       0.234831      -1.298441
C        1.129907      -0.215034      -0.267432
O        0.157557       2.721990      -1.998634
O        0.956779       3.577182      -1.131551
O        2.255945       0.264342      -0.156334
H        0.300676       4.069804      -0.628718
H        1.884691       1.149446      -1.707052
H        0.886105       1.162570      -3.081425
H        0.757845      -1.015280       0.390826
H        0.947596      -0.976526      -2.291971
H       -0.603879       0.871828      -1.201997
12

C        0.491951       1.473741      -1.746548
C        0.132202       0.340869      -1.044416
C        1.029297      -0.218769      -0.301103
O        0.151914       2.758516      -1.835776
O        0.767211       3.589377      -0.758594
O        2.218798       0.095682      -0.614318
H        0.065356       4.211398      -0.539832
H        1.848125       0.694458      -1.095604
H        0.870783       1.096566      -2.730444
H        0.780575      -0.920325       0.484778
H        1.073747      -1.306826      -1.853843
H       -0.454766       1.119143      -1.163858
12

C        0.786077       1.735713      -1.576076
C        0.820841       1.036227      -0.472925
C        1.284312      -0.270030      -0.172798
O        0.363072       3.009655      -1.752582
O        1.266073       3.965326      -1.167856
O        0.922875      -0.815492       0.867715
H        0.649837       4.628233      -0.798714
H        2.777249       1.058314      -1.262764
H        0.692778       1.195339      -2.546640
H        1.985005      -0.763721      -0.856984
H        2.475802      -0.231103      -1.730031
H       -0.039234       1.612369      -0.423285
12

C        0.921274       1.765390      -1.473670
C        0.839293       1.108348      -0.317782
C        1.233399      -0.201988       0.141500
O        0.535859       3.062810      -1.657268
O        1.293792       3.943541      -0.833855
O        0.928520      -0.630230       1.230664
H        0.640714       4.650867      -0.650498
H        2.969666       0.880380      -1.318240
H        0.968380       1.267485      -2.443715
H        1.846325      -0.792876      -0.562029
H        2.938775       0.091416      -1.962302
H       -0.021019       1.638634       0.080945
12

C        0.996371       1.804847      -1.372129
C        0.857774       1.188649      -0.172893
C        1.194908      -0.140720       0.276819
O        0.678397       3.100191      -1.601696
O        1.102526       3.951559      -0.541231
O        0.941417      -0.559233       1.383985
H        0.549219       4.734842      -0.657514
H        3.242606       0.583377      -1.428639
H        1.161015       1.316173      -2.327731
H        1.713327      -0.760850      -0.467747
H        3.335269       0.101687      -2.138418
H        0.111182       1.806448       0.368098
12

C        0.950679       1.761521      -1.453656
C        0.782593       1.195337      -0.251629
C        1.062513      -0.174199       0.114816
O        0.726037       3.053551      -1.746664
O        0.750083       3.899643      -0.604114
O        0.866086      -0.646059       1.207650
H        0.427110       4.739680      -0.960106
H        3.441941       0.243964      -1.787503
H        1.198589       1.247250      -2.375016
H        1.485126      -0.781700      -0.703198
H        3.675447      -0.048401      -2.455311
H        0.253793       1.857664       0.438319
12

C        0.567787       1.590803      -1.847601
C        0.827985       1.151098      -0.613172
C        0.971930      -0.263504      -0.326556
O        0.409017       2.847317      -2.266575
O        0.535234       3.812658      -1.231757
O        1.217304      -0.732026       0.756727
H        0.412389       4.645496      -1.709161
H        2.573714      -0.619765      -3.194993
H        0.449238       0.937610      -2.704647
H        0.834367      -0.917156      -1.212966
H        2.651439      -0.957464      -3.891665
H        0.938597       1.844532       0.206566
[GEOCONV]
energy
0.0
26.061524124
127.415292777
247.480520157
187.575699082
85.3959548189
53.6253801312
38.1279089534
33.3634124066
max-force
6.53595734204e-05
0.0071183354014
0.00947878802395
0.0182589702406
0.0171867671151
0.00946250238234
0.00532349342842
0.0021763309962
2.71742760137e-05
max-step
1000.0
1000.0
1000.0
1000.0
1000.0
1000.0
1000.0
1000.0
1000.0
