[Molden Format]
[Geometries] (XYZ)
12

C        1.118031       1.453364      -2.277758
C        0.677185       0.107669      -1.712839
C        1.321484      -0.199573      -0.387725
O        0.358189       2.428970      -1.590167
O        0.865286       3.720832      -1.840763
O        2.195377       0.434015       0.127564
H        1.304459       3.968461      -1.012990
H        2.188058       1.610002      -2.090496
H        0.926835       1.516017      -3.356155
H        0.912538      -1.111026       0.091007
H        0.928211      -0.698568      -2.405228
H       -0.406653       0.109438      -1.580249
12

C        0.958642       1.424094      -2.271972
C        0.487083       0.130139      -1.565847
C        1.265323      -0.156099      -0.317779
O        0.236841       2.557614      -1.913323
O        1.103876       3.595937      -1.483272
O        2.239545       0.429047       0.070112
H        0.783987       3.837936      -0.607153
H        2.020736       1.522343      -2.059167
H        0.968660       1.274712      -3.355814
H        0.876640      -1.024695       0.241511
H        0.832334      -0.688897      -2.223775
H       -0.558158       0.328070      -1.397903
12

C        0.804782       1.451357      -2.134434
C        0.332679       0.174486      -1.375279
C        1.244835      -0.188323      -0.316041
O        0.266108       2.692309      -2.007617
O        1.084365       3.555704      -1.198653
O        2.314716       0.349383      -0.163765
H        0.468147       3.985096      -0.593348
H        1.977209       1.278580      -1.810941
H        1.031698       1.205822      -3.167543
H        0.924944      -1.005594       0.351440
H        0.942114      -0.891173      -2.161368
H       -0.599917       0.704801      -1.323599
12

C        0.689544       1.507237      -1.987339
C        0.221231       0.293857      -1.187954
C        1.199598      -0.236406      -0.388208
O        0.249178       2.772441      -2.019920
O        0.949946       3.600969      -1.001569
O        2.401225       0.111209      -0.498959
H        0.258233       4.147182      -0.617856
H        2.062737       1.024760      -1.427260
H        1.035272       1.172524      -2.977197
H        0.947556      -0.985809       0.360978
H        1.094756      -1.179820      -1.903977
H       -0.530255       1.001134      -1.311599
12

C        0.787420       1.712444      -1.822565
C        0.769546       0.905764      -0.773599
C        1.387779      -0.265680      -0.718380
O        0.344402       2.942529      -2.028971
O        1.224532       3.958344      -1.398023
O        0.813807      -1.248988      -0.172613
H        0.622572       4.615233      -1.017006
H        2.757542       1.203922      -0.913745
H        0.783163       1.192206      -2.798908
H        2.402344      -0.446016      -1.102225
H        2.330426      -0.529504      -1.288930
H        0.126275       1.512001      -1.117454
12

C        0.910097       1.690642      -1.934317
C        0.697285       0.977300      -0.811469
C        1.173507      -0.304746      -0.638042
O        0.521608       2.950402      -2.181995
O        1.118666       3.892650      -1.264257
O        0.653582      -1.134848       0.107634
H        0.424464       4.554846      -1.106594
H        3.054135       0.924911      -1.202497
H        1.123688       1.193555      -2.889063
H        2.053248      -0.610843      -1.198348
H        2.953523      -0.214476      -1.770960
H       -0.118198       1.608539      -0.927543
12

C        1.066703       1.657234      -2.026490
C        0.655125       1.013068      -0.901462
C        0.955058      -0.343679      -0.569610
O        0.732676       2.940325      -2.274428
O        0.897422       3.780923      -1.137338
O        0.412464      -0.982874       0.303536
H        0.206639       4.451741      -1.242061
H        3.428455       0.620767      -1.623171
H        1.505096       1.221385      -2.916127
H        1.703581      -0.804501      -1.206559
H        3.502096       0.045649      -2.184062
H       -0.201991       1.619059      -0.646731
12

C        1.142062       1.686125      -1.891877
C        0.623651       1.048423      -0.832644
C        0.846336      -0.351317      -0.557003
O        0.980971       2.984332      -2.181744
O        0.540537       3.769809      -1.083823
O        0.382944      -0.970366       0.367750
H        0.178447       4.556678      -1.515905
H        3.742780       0.373642      -1.742765
H        1.701632       1.231699      -2.698768
H        1.496199      -0.836243      -1.311936
H        4.035484       0.066628      -2.399280
H       -0.055221       1.643452      -0.238025
12

C        0.567787       1.590803      -1.847601
C        0.827985       1.151098      -0.613172
C        0.971930      -0.263504      -0.326556
O        0.409017       2.847317      -2.266575
O        0.535234       3.812658      -1.231757
O        1.217304      -0.732026       0.756727
H        0.412389       4.645496      -1.709161
H        2.573714      -0.619765      -3.194993
H        0.449238       0.937610      -2.704647
H        0.834367      -0.917156      -1.212966
H        2.651439      -0.957464      -3.891665
H        0.938597       1.844532       0.206566
[GEOCONV]
energy
0.0
7.25565669786
73.1143773687
169.346742506
1050.66417055
162.9916128
56.2213678672
36.2504929396
33.3634124066
max-force
6.53595734204e-05
0.00260172182006
0.010706596235
0.0110901648926
0.651436942729
0.0204971414456
0.00338421515238
0.000774680771375
2.71742760137e-05
max-step
1000.0
1000.0
1000.0
1000.0
1000.0
1000.0
1000.0
1000.0
1000.0
