56
 energy: -94.153367194863 gnorm: 0.000156866377 xtb: 6.4.0 (d4b70c2)
c         0.96554716999974   -2.74177403999975    0.17727162000002
c         1.16832473000018   -4.23932533000001   -0.00732709000009
c        -0.46061281000015   -2.35403843000006   -0.23247500999993
o        -0.76651547000013   -2.21196530999986   -1.41317611000005
o         0.78974222000022   -0.08232139999975   -0.23277365000020
o         1.13933489000016   -1.67997875000005   -3.47719251999990
n         1.87833775000024   -1.99667252000018   -0.67016258000001
c         1.62665881000004   -0.68879063999998   -0.88332230000005
c         2.37922721999985   -0.08253094999992   -2.04904987999982
c         1.46157352000017   -0.33046621999991   -3.28822829999975
n         2.66627241999974    1.31187143000019   -1.80260605999978
n        -1.33469471000015   -2.24546139999986    0.76859922000021
c        -2.73149367999982   -1.90189817000006    0.56162553000010
c        -3.56891233999997   -2.45022377999994    1.70579585000026
c        -2.90516107999983   -0.36998390999976    0.44567554999984
o        -3.52031218999983    0.28546418999994    1.25867307000022
n        -2.33310336000025    0.14155747000007   -0.65984389999975
o        -0.12435088000003    2.47852208999980   -1.42526253999986
o        -0.74487029000024    2.09218530999977    0.71258858999994
c        -2.31928166999980    1.56416543000019   -0.93812610999987
c        -0.92534579000004    2.10978061999980   -0.61017734999978
c        -2.68748764000025    1.83544721999977   -2.38973752999977
h         1.13595318000016   -2.44910077999997    1.21971923000010
h         0.95804688999974   -4.51991736000002   -1.03782475000005
h         0.49839099000004   -4.78977758999985    0.64786629000004
h         2.19326217999990   -4.50971496000007    0.23480977000026
h         0.44076954000011   -1.93833372999997   -2.84620459000008
h         2.40667669000014   -2.50954704999985   -1.36001871000015
h         3.32503996999977   -0.61673320999980   -2.19997117999999
h         1.99583327000015   -0.00862597000007   -4.18793456000020
h         0.56381566999979    0.29166647000004   -3.17294626000024
h         1.81710516000007    1.78003880000006   -1.49465940000000
h         2.96744853000006    1.76219508000006   -2.66061170000012
h        -0.99018959999988   -2.21185341000025    1.71986703000014
h        -3.03182981000008   -2.34691827000014   -0.39498053999977
h        -4.61736501999986   -2.22765621999982    1.53113047000019
h        -3.27527027000016   -1.97537407000008    2.63888434999983
h        -3.44003035000001   -3.52618875000004    1.79034292000024
h        -1.76995086999990   -0.46097822999995   -1.24883763999995
h        -3.03797923000001    2.01625060999982   -0.24373634000014
h        -2.70025139999993    2.90535559000015   -2.57711561000004
h        -3.66832728000007    1.42247481000020   -2.60820543000005
h        -1.95399454999982    1.38066160999975   -3.05122923999977
c         0.51722359000018    2.23847331999974    1.26055915999984
c         0.94182573999997    1.24207740000020    2.15356321000010
c         1.35182380000023    3.29404990999991    0.93955873000014
c         2.21983145999983    1.32383645000026    2.69986159999995
c         3.04958205999986    2.38213519999983    2.38473633000010
c         2.61435277999983    3.36264490999989    1.50796419000002
h         1.02288834000024    4.04841453999992    0.24236526999977
h         4.03869646000010    2.44036060000025    2.81264321000020
h         3.26398492000011    4.18573378000004    1.25238262000009
h         2.53920017000005    0.54118575999993    3.37183802000003
c         0.06254597999988    0.10514940999985    2.41603171999990
o         0.40688003000009   -0.97371238999989    2.84721420000026
h        -0.99395227999993    0.30077797999989    2.17213985000023
56
 energy: -94.073412064288 gnorm: 0.093074399526 xtb: 6.4.0 (d4b70c2)
c         0.99031714788720   -2.89007888713746    0.26480095376154
c         1.11545287209583   -4.34812871759582   -0.15506452678417
c        -0.38756244435393   -2.43956590513919   -0.23584797808330
o        -0.66686257391145   -2.34245412800812   -1.42764369099062
o         0.65682653447882   -0.20655724940426   -0.13984332781925
o         1.22011166615734   -1.71571335752426   -3.48081406378698
n         1.92425756006309   -2.02996170245280   -0.43837851433576
c         1.60162941045186   -0.74566772355494   -0.69496068336248
c         2.36055782927832   -0.17614952435790   -1.87500622454434
c         1.51176482333346   -0.38196082238243   -3.16973225940778
n         2.67682964706076    1.22691485274479   -1.73763815340634
n        -1.28694079317304   -2.21627959565874    0.72291139763719
c        -2.68104565890877   -1.92798038476552    0.43089028982592
c        -3.57800853651221   -2.58303960259133    1.46887473357924
c        -2.85692117353197   -0.39193974436120    0.43449238182439
o        -3.46579506539279    0.25557316546510    1.25849945421777
n        -2.33092235388917    0.22540650089178   -0.63942879335990
o        -0.11375867884404    2.31975399030635   -1.38332487872725
o        -0.77924337304639    2.22369853674807    0.77712603375944
c        -2.38353010899403    1.66513528637113   -0.80023565705057
c        -0.96061831864433    2.17338234263480   -0.54467654799137
c        -2.81049382554407    1.94508346064068   -2.23399858571010
h         1.00051188268063   -2.91367292675815    1.36058024058284
h         1.01679521961832   -4.42574105613995   -1.23632170035115
h         0.27762245478367   -4.87957361758462    0.28843719816430
h         2.10024454939644   -4.75223106532219    0.06657533908647
h         0.78850728196377   -2.14028357048379   -2.71508277847991
h         2.58413091083811   -2.43536774616807   -1.08513727530089
h         3.32886208769669   -0.67250650840384   -2.01185524775090
h         2.14636182031154    0.03342157019583   -3.95918149758586
h         0.61025796033133    0.23661757832899   -3.06506933971048
h         1.83037168149691    1.69393534553114   -1.42062452862195
h         2.94454749330311    1.63452457011798   -2.62749970984798
h        -1.00807156994607   -2.04951256480533    1.68163159513875
h        -2.82935497216815   -2.25653064583099   -0.60515937749153
h        -3.55461669681996   -1.89272360278416    2.30685681897225
h        -3.11455589405076   -3.55227637824904    1.63666561232561
h        -4.57277180598271   -2.58008368042408    1.03081459145260
h        -1.71434860137748   -0.30284104302801   -1.24597223404253
h        -3.04378403300632    2.12041533157348   -0.05199160778360
h        -3.07636048405997    2.99239633210068   -2.34547971396946
h        -3.73581637644216    1.40445966260779   -2.41239397596126
h        -2.01823578113825    1.55769080242375   -2.87013336763823
c         0.48938006507761    2.37657145064475    1.30795293589536
c         0.94466607090132    1.33444027602339    2.13088982516101
c         1.25775671860432    3.49116892261894    1.02315412026545
c         2.29680039274917    1.36610947276078    2.46127562836751
c         3.15576203502129    2.32313941581645    1.95722727872066
c         2.61788123717609    3.40324125842999    1.27633272403359
h         0.74819957931269    4.26217960819516    0.46706308558585
h         4.18675361225232    2.15842676435261    2.23066440831715
h         3.14588936604239    4.30534066128164    1.00755178857814
h         2.65540242680363    0.45419283012676    2.91504136747301
c         0.00708378663620    0.24770211714310    2.40396004757765
o         0.28640738025399   -0.80478013790037    2.93564268796188
h        -1.00020272051529    0.55035580463441    2.07575745091469
56
 energy: -94.040679695464 gnorm: 0.097858521739 xtb: 6.4.0 (d4b70c2)
c         0.93567027214838   -3.01061671093776    0.23646496827648
c         1.22208136680298   -4.46770460922176   -0.09927128556761
c        -0.46721347669593   -2.59127896126755   -0.21986444753453
o        -0.72511598201309   -2.49066486005628   -1.41618355190888
o         0.59082992932666   -0.26722304610091   -0.23339045293434
o         1.57413680817809   -1.77417103862603   -3.14667289329036
n         1.82701108161782   -2.13638499232785   -0.50362834136482
c         1.60987604566806   -0.81114299104779   -0.62980434151879
c         2.51854896044160   -0.12228182882574   -1.62610482274989
c         1.73922708493415   -0.39747565347566   -2.95126486653083
n         2.78927058470490    1.26991135942705   -1.35043213633281
n        -1.37285918946328   -2.32494332912007    0.72185150305273
c        -2.72271464392390   -1.98436470401931    0.30493709680085
c        -3.78198043699490   -2.65051624252022    1.16821852281311
c        -2.92766753690117   -0.45610049585790    0.41793664776992
o        -3.59991106376204    0.02710159512978    1.30314422584012
n        -2.37780521731224    0.27218791791539   -0.57117674512111
o        -0.43526859814496    2.44496921444388   -1.41472533486166
o        -0.79915600827639    2.47717081310141    0.80739634310893
c        -2.55596277233052    1.70863597991815   -0.65068969053912
c        -1.16284057586384    2.32019292148303   -0.46762612041861
c        -3.04052620364537    2.17242976633960   -2.01686639376481
h         0.92247443482131   -2.89163682918684    1.32598895790090
h         1.03670656667348   -4.52290592998838   -1.17046831810585
h         0.65493227576159   -5.22004552722492    0.44240419275918
h         2.21236547803101   -4.74855916791106    0.25100815093571
h         0.69887217418331   -2.06538637989867   -2.82731093997150
h         2.68547047050700   -2.47882618421885   -0.90843114238578
h         3.50231583964097   -0.60400567026173   -1.67954563067069
h         2.32025229256574    0.04243704276686   -3.76819357160931
h         0.82668899443064    0.21161646488044   -2.90038053860861
h         1.88760421033693    1.60686047822785   -1.02094783024464
h         2.97350748380123    1.89042008810093   -2.13190369695391
h        -1.05894677043226   -2.34141034672037    1.68409448016720
h        -2.83233530984750   -2.21552657888741   -0.76178093265330
h        -4.05176183357030   -3.66392795222371    0.88623972589659
h        -4.71896957465348   -2.10252603006636    1.23240688093529
h        -3.47056580676124   -2.68787170226617    2.20893216729529
h        -1.78596239554338   -0.18120867666378   -1.25765852408990
h        -3.25944759070038    2.12962026008227    0.07798424763402
h        -3.10779042026694    3.25660523907484   -2.02092243069312
h        -3.92459770250300    1.59299381740037   -2.26784926858005
h        -2.28834198665057    2.05012126161603   -2.79254215323589
c         0.52957565419298    2.49544911232098    1.19300118795410
c         1.00693360241590    1.44083049846971    1.98701454273961
c         1.39019684033928    3.47855231597889    0.73838031047648
c         2.37569271353445    1.37412743067859    2.23293003562453
c         3.24048244718001    2.34526903823695    1.76730248998478
c         2.73831188607336    3.42341300989293    1.05668053122770
h         1.08779727837766    4.37529340684392    0.22093153353830
h         4.31711785005269    2.31128780839693    1.83470658975462
h         3.47749182395222    4.14321587556714    0.73995346155251
h         2.83560342612684    0.53513540500531    2.73359495333818
c         0.12335237134704    0.32710740744174    2.32396126943388
o         0.53710860233979   -0.74646287672857    2.70432915293910
h        -0.94145896769180    0.55761943288601    2.15969496183782
56
 energy: -94.056211879225 gnorm: 0.105104205646 xtb: 6.4.0 (d4b70c2)
c         0.69930883700880   -3.02779760736896    0.46093595067351
c         1.06027917208543   -4.47033426630766    0.13437232064385
c        -0.57329941117683   -2.61802939344690   -0.29054388555922
o        -0.57633949283355   -2.61951115426336   -1.51847099074001
o         0.40720561191423   -0.34943944840278   -0.32433234870121
o         2.11883630616161   -1.88624884998000   -3.09505145849182
n         1.76199635767164   -2.12186250943521    0.06535458470359
c         1.49972614596146   -0.88804249238595   -0.41238701323589
c         2.59146617142401   -0.25577661206290   -1.24974868169163
c         2.47117335444364   -0.56938261501511   -2.77497141241256
n         2.54433189689825    1.16566424125239   -0.99524558766996
n        -1.63556229415576   -2.28434722201674    0.44308523699598
c        -2.91438667632852   -1.93362471836128   -0.15149294576063
c        -3.96145215919507   -2.90531763805146    0.36862584243982
c        -3.12608951664062   -0.48210740459912    0.33702077049332
o        -3.72593038998547   -0.19991689325766    1.35168703874705
n        -2.49651915119690    0.41077925791454   -0.44878619756297
o        -0.61720407467036    2.43625692816494   -1.45173405699609
o        -0.69875476358214    2.50400296849118    0.81789585996492
c        -2.63270210447748    1.83089268249692   -0.19153610384250
c        -1.20020759151576    2.33060784581244   -0.40728576433885
c        -3.74851083736324    2.47510417128407   -1.00166429169143
h         0.48628106694469   -2.99138227380989    1.53549913519330
h         1.35182491044183   -4.52529333723980   -0.91293598557804
h         0.12012038550656   -4.99614796880164    0.27827747584499
h         1.98342514990867   -4.77985791998543    0.61834982327713
h         1.14848252420415   -1.99121958142838   -3.07827945441450
h         2.65375282191542   -2.56383145625631    0.23123927405011
h         3.58950755651529   -0.53728805333242   -0.89285119355169
h         3.44709450927385   -0.37116610535171   -3.22969563401052
h         1.72828442970545    0.17436103834518   -3.09320031633305
h         1.72942282870221    1.43293365423063   -1.54259113265985
h         3.37898782435607    1.60822463393141   -1.36559934820503
h        -1.41849104068686   -2.01186938725142    1.39353759087250
h        -2.89434996524411   -2.05326121109233   -1.24173401037361
h        -4.00316516351709   -3.79073453687243   -0.25874509839682
h        -4.94303875658233   -2.44797308625488    0.27020941688563
h        -3.78364254494340   -3.26412716624859    1.37912021648328
h        -1.87861409725529    0.04752752853997   -1.16526733006177
h        -2.83108105745713    2.07192059405901    0.85995604286090
h        -4.01477432135862    3.43916064283283   -0.57778191024567
h        -4.66133975040233    1.94767689823941   -0.73920534786495
h        -3.59038070674451    2.40800726890552   -2.07539900548488
c         0.67119805336203    2.51198883180437    1.01210830219224
c         1.32123744973267    1.46004804655236    1.67650088701735
c         1.40121395891521    3.56257227292116    0.48561802956400
c         2.71283453890666    1.47576403069254    1.71694471004281
c         3.41320972520854    2.57545912231865    1.26094956361931
c         2.77068664207338    3.65638572216091    0.67930104362028
h         0.88941084887749    4.40709885322862    0.05182578561208
h         4.48913001394941    2.53637938972814    1.18538428349945
h         3.37189443748919    4.43556442564911    0.23630116307188
h         3.15751200920006    0.60891733338479    2.18270168084653
c         0.49823671063592    0.34731112468183    2.14459731091834
o         0.83681259687161   -0.69679939121170    2.65804319518567
h        -0.57941391993109    0.52833355603015    2.00373435675010
56
 energy: -94.077622457078 gnorm: 0.113181748501 xtb: 6.4.0 (d4b70c2)
c         0.35719437099194   -2.89229166423669    0.47041149761676
c         0.86377916191186   -4.32209072989763    0.60041831591498
c        -0.80582619202587   -2.78164082745440   -0.52321975228804
o        -0.54652318488866   -2.87594067719528   -1.71975048271765
o         0.45370994246223   -0.18076374960278   -0.61868234472497
o         2.89269734306126   -2.70628773779295   -2.09347952786617
n         1.51377847226323   -2.11422613359396    0.06614068311670
c         1.43662747644917   -0.89748983259983   -0.51086440152572
c         2.77249009161388   -0.44337737333281   -1.06048587520175
c         3.10868073038126   -1.33767764134681   -2.29593164651389
n         2.59128559994655    0.94474118068909   -1.41794819992464
n        -1.98330024567418   -2.37741508525740   -0.04560676957832
c        -3.06193402881347   -1.78319782679306   -0.81721300436670
c        -4.16007906740722   -2.79534880805534   -1.10126331612971
c        -3.46159671955037   -0.64036765028531    0.14433522564969
o        -3.88630621394083   -0.93953213383027    1.23937428166447
n        -3.11935515853250    0.59709240954745   -0.25897756048460
o        -1.32991524071485    2.55962936646271   -1.14832545060957
o        -0.59819735384175    2.49892386380995    0.99921874931707
c        -2.76334051723804    1.70962673618731    0.59948991339097
c        -1.46649506035963    2.27455449892287    0.01012407256035
c        -3.76503677261507    2.85543491929138    0.60805719636079
h         0.04874650948412   -2.45046837715596    1.42489825327332
h         1.16486003930085   -4.64422701407234   -0.39479653765021
h         0.18464624381472   -5.06419129750515    1.01169984906618
h         1.62047939367403   -4.37834800536754    1.37918494723411
h         1.94605953936860   -2.89281106325166   -2.24171086544374
h         2.37361768482549   -2.63992171454952    0.11517623298741
h         3.67357541703791   -0.44354724451714   -0.43538087623397
h         4.18547706873476   -1.24798092286193   -2.47185812513851
h         2.62365632236858   -0.87966870935484   -3.16844945839204
h         1.61129274099727    1.10542905967283   -1.63905964078199
h         3.08488439096501    1.32670000202652   -2.21803557624048
h        -1.97198295648045   -2.28715197929075    0.96258379132317
h        -2.60273145635390   -1.39139069736960   -1.73316061676193
h        -4.13415706168344   -3.48227255217527   -0.26057243579639
h        -3.94696496077701   -3.30928306376781   -2.03550954741260
h        -5.00289291794893   -2.11668379524330   -1.20391810403965
h        -2.74853104245652    0.63695061901496   -1.20131742881388
h        -2.62229569780199    1.39281363422706    1.64007637174136
h        -3.36165718315247    3.67138368964223    1.20092302655134
h        -4.69681299310151    2.41394655344323    0.95040487715165
h        -3.88451858366770    3.28547211386914   -0.38350997654713
c         0.76557421396448    2.67625661798758    0.84679432631601
c         1.58908033838369    1.72817896301753    1.47411770936071
c         1.30618134755921    3.76749581545298    0.19045463648564
c         2.95222501429928    2.00411938928115    1.53829462397635
c         3.51931249470039    3.11682406567070    0.94830615719377
c         2.68008835835550    3.94898004781351    0.22527605940161
h         0.68315579744608    4.39095230148001   -0.43122411925024
h         4.59226343699797    3.09076698916668    1.06205642527134
h         2.99591277864613    4.81707085203413   -0.33283903822732
h         3.49700257500574    1.16805378463838    1.95097190381961
c         1.07287542775894    0.49956132252657    2.07299931298281
o         1.75003646232074   -0.41461005174564    2.49033697793029
h        -0.02135685143793    0.38645817024271    2.13469041604032
56
 energy: -94.067676538256 gnorm: 0.116060035021 xtb: 6.4.0 (d4b70c2)
c         0.00051603144819   -2.67053677119449    0.52710035446175
c         0.01339103905252   -4.09564336105700    1.06260080410058
c        -0.84901766210329   -2.66645427072330   -0.74978622293800
o        -0.31371496164618   -2.72298723067254   -1.85344891651414
o         0.51083819041618   -0.25829533205409   -0.73302626620748
o         3.50556159067861   -3.11323347316806   -1.13987310500525
n         1.33208777759546   -2.23375704584577    0.14941291864998
c         1.40416998491304   -1.06178979945238   -0.51438772726128
c         2.75876662711795   -0.77553233983544   -1.12753976352612
c         3.26032082112820   -2.00143065796501   -1.95502998871024
n         2.66298491397624    0.42912967612473   -1.91943798425936
n        -2.13061496102297   -2.34350752207034   -0.57323165185444
c        -2.95818874879787   -1.43016302228036   -1.34319568795380
c        -4.10062626866986   -2.07433824904399   -2.11191637910262
c        -3.45714360877029   -0.53680774884871   -0.18417607087064
o        -3.71914822523544   -1.12132193264592    0.84474803767493
n        -3.33595319034629    0.80303765685588   -0.21917680353557
o        -1.53644748626347    2.62045011222640   -0.61319095245901
o        -0.54150073071049    2.12366714995265    1.35468670952984
c        -2.77499330680920    1.36486871842886    0.99371862341060
c        -1.52704036756242    2.07277589872590    0.45540227342552
c        -3.68764258388516    2.28077381845436    1.79654757354778
h        -0.35848650182040   -1.95822224961821    1.27884370779931
h         0.33977337591058   -4.79545678011011    0.29539168430499
h        -1.01060638035828   -4.36658461713262    1.30572092403519
h         0.72793601004617   -4.30065584277442    1.85609494675932
h         3.15193706744679   -3.89539432025414   -1.60469642370793
h         2.00323729204238   -2.98445643865722    0.08543987114286
h         3.54089306693087   -0.58176346622122   -0.38360232814568
h         4.17094027835542   -1.80424211828166   -2.52981243926994
h         2.46438191905762   -2.24457495475246   -2.67173795242649
h         1.65542513711786    0.55761489631408   -1.97784784226027
h         3.15466261466734    0.31758913291200   -2.80005360031154
h        -2.44819632878758   -2.65818716184166    0.33497675718357
h        -2.23778255640869   -0.89860265209990   -1.97707134316652
h        -5.03613617014131   -1.53194239459898   -2.01229059014668
h        -4.20500301202257   -3.08341275014771   -1.72046241201604
h        -3.88588008015570   -2.15096495603100   -3.17468249349347
h        -3.02394484480900    1.25517467809762   -1.07083784694920
h        -2.41215704868220    0.58160481995263    1.67042525961676
h        -3.14636768888944    2.60331037056782    2.68140295279209
h        -4.50695211176567    1.63451474238251    2.09887511241602
h        -4.03299157169821    3.11333125948134    1.18827499160942
c         0.69394861162527    2.60089484402609    0.95409757166447
c         1.86403619645757    1.99224090141468    1.43470514714255
c         0.78696171555827    3.74574855191687    0.18305969667525
c         3.10677901594766    2.55374346638574    1.15411580955795
c         3.20460173042638    3.67379963914811    0.35181212929008
c         2.04017122380652    4.24721118656412   -0.13280529670209
h        -0.07690592697367    4.25343812394740   -0.21609854260747
h         4.15046737312548    4.13661529715694    0.11520765539756
h         2.23948565516896    5.13897251210574   -0.70713505651446
h         4.00502109560904    2.05482609231630    1.48628061197677
c         1.80805234494930    0.80061069583285    2.27821641633458
o         2.64105087613173   -0.07803263648665    2.22795275292677
h         1.02302236386312    0.76142260741849    3.05031396342535
56
 energy: -94.058205355872 gnorm: 0.114446231718 xtb: 6.4.0 (d4b70c2)
c        -0.40934641189589   -2.71772282535318    0.35367998034414
c        -0.61991598719042   -4.04309112785846    1.07264771725136
c        -1.03842904919036   -2.61569458641277   -1.04131420193018
o        -0.34738084748994   -2.29366241316267   -2.00389612570160
o         0.68724454071440   -0.05803539404738   -0.36427689952313
o         3.84949282413311   -3.40229310515506   -0.74156865360139
n         0.95677291853162   -2.28582974236348    0.12196035932698
c         1.31348590195865   -1.10483199165731   -0.42332353826080
c         2.74193047829425   -1.14073721354108   -0.92441008081398
c         3.15085002294400   -2.50707042134783   -1.56083897696263
n         3.01685050318725   -0.13390627005279   -1.92350864071160
n        -2.37102828994337   -2.60816472409316   -1.08692472741517
c        -2.94251691163463   -1.35267642438147   -1.54416760762444
c        -4.05755211952975   -1.60000382482061   -2.54745338643891
c        -3.41170616687249   -0.76565267921216   -0.19300860933162
o        -3.92965631588761   -1.48661998250812    0.63217128945476
n        -2.87357916245683    0.44514981240238    0.04252172558617
o        -1.63263415154521    2.74933191938388   -0.08652506352750
o        -0.32798184357316    2.08897299354248    1.56948813764529
c        -2.55725167473285    1.06544679027749    1.31398310213777
c        -1.45873940379769    2.03346399838451    0.86174744761477
c        -3.69220989737651    1.85247108883309    1.95336387011303
h        -0.88156616802693   -1.81234091721927    0.75203279873537
h         0.00929441150207   -4.71884251956351    0.49616838934454
h        -1.66109477850829   -4.33767617807243    0.97138743537515
h        -0.37416099035639   -3.95174609054094    2.12787193671455
h         4.80538448454226   -3.21346818289640   -0.80075390558488
h         1.60185431747773   -3.06160219997010    0.11051996696824
h         3.43045337409975   -0.95279173038461   -0.09174942408114
h         3.79273211350816   -2.26633021181114   -2.41437135172251
h         2.24374869412672   -3.04284466882250   -1.87135681083291
h         2.94570326492553    0.78421751054559   -1.49097695252445
h         2.20126357801142   -0.03118568716721   -2.51843600324533
h        -2.94150222500378   -3.06358626785347   -0.38558713248418
h        -2.16210916057796   -0.75052666341650   -2.02553987939755
h        -3.81212363081587   -1.14045728699157   -3.50028032412623
h        -5.03136323178325   -1.18052099258382   -2.30643858760996
h        -4.27514173682329   -2.63905190538061   -2.78089125125535
h        -2.71503072372164    1.06546890839380   -0.74308010714887
h        -2.22604626616679    0.36035397219008    2.08614335469612
h        -3.40133884894581    2.27817752934137    2.90947340480457
h        -4.46387905035442    1.12666782154855    2.19431443096816
h        -4.15337738456170    2.58070121778765    1.29047716884714
c         0.76423130880309    2.76874758355164    1.06004732756966
c         2.01601180996947    2.13416727384807    1.09007429604837
c         0.64727531259487    4.02691683597172    0.49686682278640
c         3.06762723597111    2.75469045989304    0.42113395253037
c         2.90054614325472    3.96016801484961   -0.23208429597246
c         1.69681408699276    4.64305583967597   -0.16691825377910
h        -0.23340519804177    4.61178746085015    0.71057571974033
h         3.69835843473476    4.42954169945390   -0.78708494015401
h         1.59004692643131    5.56744700375202   -0.71365487011976
h         4.06322159580021    2.34089214769324    0.48157946015269
c         2.25083398786961    0.92597038993546    1.87731430332764
o         3.34184897001353    0.70474261455142    2.35603308478553
h         1.39489458017082    0.23465594076430    1.93557629370266
56
 energy: -94.063222428483 gnorm: 0.113440452644 xtb: 6.4.0 (d4b70c2)
c        -0.48678696544064   -2.90628829284165    0.06570753402879
c        -0.95841744009048   -4.22637923952945    0.65966039677123
c        -1.02590093655398   -2.53062612789109   -1.32007663168469
o        -0.31891770518771   -1.91835254970998   -2.11576010714072
o         0.67200720623694   -0.44591545470518   -0.01955960090600
o         3.37226873401156   -3.64090150491622   -0.30611863851229
n         0.95079218239908   -2.71000377821175    0.02901480415791
c         1.35533046175598   -1.44284971668185   -0.19460062786039
c         2.80836665204283   -1.26788095103215   -0.58306260223205
c         3.44279426302025   -2.55863545921473   -1.19181365147889
n         2.99433563881715   -0.26313105705957   -1.60452270495931
n        -2.35419769217337   -2.58950476954958   -1.42066961925530
c        -3.16780790393118   -1.41642471547197   -1.69241012978135
c        -4.61214297650869   -1.61758509262484   -2.12193021651502
c        -3.21087658432943   -0.73068594280565   -0.30739256447651
o        -3.92390545877373   -1.26237849875709    0.51594274041508
n        -2.33694617731016    0.26179667676876   -0.05774897663547
o        -1.74687516434037    2.99864394350398    0.08052895007219
o        -0.22188116032290    2.19343036327375    1.57546748901357
c        -2.18451651081553    0.94248246118639    1.21302937466277
c        -1.37410656080497    2.20510349541947    0.90105573629739
c        -3.54226291326453    1.17403236998464    1.86052810031612
h        -0.95498911421585   -2.05161114605143    0.56741127218403
h        -0.82741885807791   -5.00401180467276   -0.09067357837978
h        -1.99706245287668   -4.13945821006901    0.96747295329801
h        -0.40060289154223   -4.47765930520799    1.55851459664146
h         4.24965119772463   -3.92873596758805    0.01048513578520
h         1.48348141053285   -3.47964668515712   -0.34778201173261
h         3.38177147225521   -1.01228673718828    0.31615350145384
h         4.43004462326978   -2.37340830028784   -1.62714527846584
h         2.80429683672925   -2.75533511885199   -2.06355815713911
h         3.45778124117747    0.54661406718133   -1.19877908694535
h         2.09646849499860   -0.02056813331494   -2.01031815446426
h        -2.90784622387749   -3.24068949621436   -0.87830854642449
h        -2.58216459094592   -0.77027871441241   -2.35788528368737
h        -4.83813922276868   -2.60756202871451   -2.50685712019430
h        -4.95654820713183   -0.85136811732766   -2.81233492929176
h        -5.14881918323530   -1.55250016778763   -1.17895513405931
h        -1.82632030753641    0.66273537718179   -0.83596042846801
h        -1.57127386189857    0.34893657939945    1.90202948438049
h        -3.47956010048726    1.66101011593655    2.82949581467073
h        -4.11990497622306    0.25391900355421    1.86700059502929
h        -4.07936155721609    1.93711440533274    1.30227706400648
c         0.81384332498028    3.00777149883544    1.15276628913554
c         2.12897963575029    2.52115937381161    1.08816520562263
c         0.56592183751656    4.27899748345281    0.66659732992550
c         3.03910373865103    3.16892868378708    0.25720538785721