10
 energy: -15.408989731778 gnorm: 0.000659959563 xtb: 6.2.3 (830e466)
C        -1.39501746465656    0.60790425278149   -0.21308397032649
C         1.40808298391757   -0.38986828443696    0.06503462290770
O        -0.89636982755245   -0.70777316780913   -0.09351834474200
O         1.41917966706929    0.62063649035758    0.71361069514442
H        -1.01166989278058   -0.99329735355194    0.82031139833977
H        -0.76030137891803    1.31201011613213    0.33692054397442
H        -1.36944137350217    0.85702554107663   -1.27218608577232
H        -2.42299896553363    0.67863054183944    0.15054888925342
H         1.46095075319071   -1.39094985113638    0.52263892706064
H         1.44858549876567   -0.39321828525382   -1.03398667583955
10
Properties=species:S:1:pos:R:3 6.2.3=T gnorm:=T pbc="F F F" -15.451068183891=T 0.000311796605=T energy:=T xtb:=T 830e466=T
C      -0.96947112       0.03731020      -0.11648090 
C       0.54909470       0.00186248       0.11234700 
O      -1.47339315      -1.20001616      -0.55154771 
O       1.05164812       1.23764174       0.55351494 
H      -1.30725436      -1.86289518       0.12775902 
H       0.86977471       1.90722521      -0.11556102 
H      -1.20945862       0.74860013      -0.91263572 
H      -1.46661924       0.36814016       0.80651131 
H       0.79008807      -0.71318796       0.90474858 
H       1.04659089      -0.32358062      -0.81236551 
