10
 energy: -38.840750933147 gnorm: 0.000977447258 xtb: 6.2.3 (830e466)
C        -0.24063191773927    0.03222669749464   -7.12054917819764
C        -1.13140985989685   -0.77789879372850   -4.76318209551029
C        -0.05046692264567   -0.30731891083217   -5.63962530293055
O        -0.20215993273575   -1.63984954515742   -5.24733922386355
F         0.90668953070215   -0.02765014723800   -7.78428708212358
F        -1.09643980879970   -0.80927037504265   -7.68903352373117
F        -0.72742780687833    1.26659449519988   -7.25656791601381
F        -1.13207973077920   -0.50755407017556   -3.47011544480518
F        -2.37907165221959   -0.88472870291079   -5.19263177757802
F         0.98829810099221    0.34504935239058   -5.09346845524622
10
Properties=species:S:1:pos:R:3 6.2.3=T gnorm:=T pbc="F F F" -38.847048584925=T energy:=T xtb:=T 830e466=T 0.000839310414=T
C      -0.42103647       0.25672502      -6.92146262 
C      -0.65628360      -1.51785532      -5.09048798 
C      -0.38599473      -0.02075427      -5.38449172 
O       0.13788904      -2.35113915      -4.88270865 
F       0.46667120      -0.51443902      -7.54589287 
F      -1.62354782      -0.02021933      -7.41720816 
F      -0.13903788       1.52125632      -7.19158188 
F      -1.29741333       0.76368691      -4.77978690 
F      -1.97083392      -1.75080724      -5.13166151 
F       0.82488749       0.32314606      -4.91151771 
