13
 energy: -16.684426654872 gnorm: 0.000441000096 xtb: 6.2.3 (830e466)
C        -0.80564969442550   -1.21848368564401   -0.22355959969998
C         1.90848950307100    0.39207174996427   -0.19410445014449
C        -0.61469771920782    0.24891761195934   -0.00307680083662
C         0.52823318654348    0.92677569421639    0.00923975810294
O        -1.82269027323556    0.86880069026580    0.19957524330047
H        -1.68636735829613    1.81261906459397    0.34053888668136
H         0.48622917738081    1.99679146571810    0.18545178885581
H         0.13599267927223   -1.72800901599483   -0.38908221472746
H        -1.45392402576296   -1.37030724450228   -1.08486079359622
H        -1.30135102615154   -1.65018346508916    0.64425640623499
H         2.37634509900794    0.88172387276568   -1.04878390086599
H         1.91268620713432   -0.67893964037474   -0.36742421304739
H         2.52301424466973    0.60215290212147    0.68187988974259
13
Properties=species:S:1:pos:R:3 6.2.3=T gnorm:=T pbc="F F F" energy:=T xtb:=T 830e466=T -16.679083478749=T 0.000708102755=T
C      -1.30518970      -1.22524710      -0.05540979 
C       1.73776707       0.42485936      -0.01669279 
C      -0.72130831      -0.04232559       0.07125188 
C       0.41782514       0.42737906      -0.79184188 
O      -1.13470704       0.82398870       1.04696238 
H      -0.62441476       1.63958293       0.98991606 
H       0.20744750       1.44002783      -1.15222178 
H       0.50459342      -0.22689022      -1.65856557 
H      -0.99216570      -1.92173650      -0.80936048 
H      -2.10624420      -1.51899738       0.59714929 
H       2.54642091       0.79188973      -0.64434230 
H       1.97835948      -0.58570464       0.30497345 
H       1.67792620       1.05710383       0.86823152 
