16
 energy: -21.762067067078 gnorm: 0.000948007887 xtb: 6.2.3 (830e466)
C        -0.68074983604229   -1.35152251164711   -0.05937255411745
C         1.75784833693415    0.50324834581699   -0.38197382480627
C        -0.68636206139748    0.14389337973344    0.05687774798761
C         0.36253571590210    0.94473354051045   -0.08458390096252
O        -1.94414864110860    0.62529414299856    0.34503884691866
O        -2.94414840968826   -0.39582469593879    2.85594881842742
H        -1.92372783625814    1.58727002911378    0.41432681199185
H        -2.52223139182832   -1.24936104458136    2.97004687197447
H        -2.71040616705314   -0.09106185735752    1.96960221543425
H         0.22794581022765    2.01453457379453    0.02419305124056
H        -0.22892894907510   -1.66459309931425   -0.99726897065648
H        -1.70634786404156   -1.70971328947820   -0.02819978183439
H        -0.12246121946133   -1.80021509680171    0.76058207657274
H         2.10962247298739    0.96453193845978   -1.30466948728558
H         1.82262547858576   -0.57487127145493   -0.48343712406243
H         2.42773456131753    0.81816691614777    0.41836920317853
16
Properties=species:S:1:pos:R:3 6.2.3=T gnorm:=T pbc="F F F" -21.798552711244=T energy:=T xtb:=T 830e466=T 0.000710751655=T
C      -1.08884948      -1.47492862       0.01752952 
C       1.30820432       0.45308204       0.06426095 
C      -1.17866500      -0.00908348       0.44389037 
C       0.14806860       0.50584705       1.04929069 
O      -1.53720411       0.73868502      -0.67961751 
O      -2.21561545       0.18161894       1.39431223 
H      -1.95675347       1.54860253      -0.36630191 
H       0.37817882      -0.08111623       1.94120200 
H      -2.16464617      -0.50064468       2.06995089 
H      -0.02026731       1.53907546       1.36356075 
H      -0.45075712      -1.55579207      -0.85561904 
H      -2.08311664      -1.82535924      -0.24833576 
H      -0.68791138      -2.08639604       0.82220039 
H       1.01412470       0.91145191      -0.87646171 
H       1.61048048      -0.57267043      -0.12844753 
H       2.16352919       0.99213783       0.46406566 
