18
 energy: -37.879670727122 gnorm: 0.000699201676 xtb: 6.2.3 (830e466)
C        -1.18618413114375    0.19350949328668    0.87935183145448
C        -1.01159204461983   -2.61183655105442    3.29620369032011
C        -2.09963504507389   -2.42267823807826    4.34022898214289
C        -1.58077743194591   -1.17720684110577    1.51491547736056
N         1.99433687991235   -2.60301683665910    4.28025457776280
O        -0.81063513619075   -1.39261247061689    2.54831205776374
F        -1.97904078868751    0.51530052488610   -0.13979734089362
F         0.07315311981734    0.16673444345878    0.42109613292524
F        -1.25688073603149    1.18561694596288    1.77646107152086
O        -2.44369288916501   -1.87097474184514    1.06439541471092
H        -1.28279135557413   -3.40628364158930    2.59545829514720
H        -0.03503930166042   -2.80780344530907    3.75475733273053
H         2.28317469639171   -2.58850981226458    5.25117282028023
H         2.62726429907952   -3.21878064799704    3.78311246457922
H         2.12597463238201   -1.66874680171735    3.90908947819468
H        -2.19602804830039   -3.33313107352564    4.92371271644714
H        -1.84368173516767   -1.60194432686742    5.00507885510999
H        -3.05383498402655   -2.20870597896046    3.86369614244209
18
Properties=species:S:1:pos:R:3 6.2.3=T gnorm:=T 0.000729860143=T pbc="F F F" energy:=T -37.886810063306=T 830e466=T xtb:=T
C      -0.67187656      -0.18362641       1.54154930 
C      -0.78653613      -2.84515891       3.99108719 
C      -1.94832881      -2.24807219       4.76771623 
C      -0.20681941      -1.66230533       1.48356748 
N       0.08308504      -1.80140189       3.45189101 
O       1.10228826      -1.67973556       1.11279107 
F      -0.87033721       0.29702425       0.31136357 
F       0.21839982       0.62652443       2.13800213 
F      -1.82095071      -0.04080649       2.21272432 
O      -0.97877142      -2.56195125       1.23648131 
H      -1.17308766      -3.40246993       3.12578561 
H      -0.21630259      -3.53211712       4.62306019 
H      -0.07601382      -0.90886856       3.90821020 
H       1.31809576      -2.56258034       0.77840628 
H       1.06939658      -2.03255006       3.50791932 
H      -2.60345657      -3.04042035       5.11764801 
H      -1.59185952      -1.68866845       5.63190319 
H      -2.52283506      -1.58388583       4.12739358 
