13
 energy: -16.684426654872 gnorm: 0.000441000096 xtb: 6.2.3 (830e466)
C        -0.80564969442550   -1.21848368564401   -0.22355959969998
C         1.90848950307100    0.39207174996427   -0.19410445014449
C        -0.61469771920782    0.24891761195934   -0.00307680083662
C         0.52823318654348    0.92677569421639    0.00923975810294
O        -1.82269027323556    0.86880069026580    0.19957524330047
H        -1.68636735829613    1.81261906459397    0.34053888668136
H         0.48622917738081    1.99679146571810    0.18545178885581
H         0.13599267927223   -1.72800901599483   -0.38908221472746
H        -1.45392402576296   -1.37030724450228   -1.08486079359622
H        -1.30135102615154   -1.65018346508916    0.64425640623499
H         2.37634509900794    0.88172387276568   -1.04878390086599
H         1.91268620713432   -0.67893964037474   -0.36742421304739
H         2.52301424466973    0.60215290212147    0.68187988974259
13
Properties=species:S:1:pos:R:3 0.000976208967=T 6.2.3=T gnorm:=T pbc="F F F" energy:=T -16.693861809227=T xtb:=T 830e466=T
C      -0.78676061      -1.22303684      -0.33241014 
C       1.63773542       0.50924829      -0.19523353 
C      -0.94005076       0.21743696       0.09115564 
C       0.29102220       1.10078202       0.19390956 
O      -2.02639445       0.67356435       0.35420586 
H       0.08465084       1.98438188      -0.41726321 
H       0.32782903       1.45157727       1.22983559 
H       0.23660192      -1.50879821      -0.53539575 
H      -1.39499930      -1.38526868      -1.22091389 
H      -1.19519601      -1.85700635       0.45299095 
H       1.64094642       0.18341887      -1.23318127 
H       1.90156214      -0.33073715       0.44382762 
H       2.40936317       1.26836759      -0.08147743 
