13
 energy: -16.684426654872 gnorm: 0.000441000096 xtb: 6.2.3 (830e466)
C        -0.80564969442550   -1.21848368564401   -0.22355959969998
C         1.90848950307100    0.39207174996427   -0.19410445014449
C        -0.61469771920782    0.24891761195934   -0.00307680083662
C         0.52823318654348    0.92677569421639    0.00923975810294
O        -1.82269027323556    0.86880069026580    0.19957524330047
H        -1.68636735829613    1.81261906459397    0.34053888668136
H         0.48622917738081    1.99679146571810    0.18545178885581
H         0.13599267927223   -1.72800901599483   -0.38908221472746
H        -1.45392402576296   -1.37030724450228   -1.08486079359622
H        -1.30135102615154   -1.65018346508916    0.64425640623499
H         2.37634509900794    0.88172387276568   -1.04878390086599
H         1.91268620713432   -0.67893964037474   -0.36742421304739
H         2.52301424466973    0.60215290212147    0.68187988974259
13
Properties=species:S:1:pos:R:3 6.2.3=T gnorm:=T pbc="F F F" energy:=T 0.000359796509=T -16.617124794564=T 830e466=T xtb:=T
C      -0.63701684      -1.52112207      -0.13281011 
C       2.39178752       0.52514699      -0.07263397 
C       0.13559532      -0.48198045      -0.19738299 
C       0.90558743       0.55902609      -0.26391179 
O      -2.76244682       1.06869197      -0.17150479 
H      -2.57266562       1.39882148       0.70883235 
H       0.47880090       1.53220725      -0.47468188 
H      -0.86039438      -2.11804290      -1.00313907 
H      -2.10702930       0.38835964      -0.35942353 
H      -1.08509842      -1.84387663       0.79453830 
H       2.89037763       0.89887608      -0.96626069 
H       2.73355572      -0.48729101       0.12586788 
H       2.67525685       1.16511355       0.76256028 
