18
 energy: -37.880290847242 gnorm: 0.000513347921 xtb: 6.2.3 (830e466)
C        -0.53459292005508    0.46573988563754    2.07266571233198
C        -1.53934133478832   -2.92454679788311    3.15508757506177
C        -2.50930715644133   -2.81207817448512    4.31972826938626
C        -0.66279356559513   -0.75295570077537    3.04138390155356
N         1.55536739566185   -2.47220994782110    2.29273186071854
O        -1.38388528697065   -1.67434050411070    2.46022150717990
F         0.06696779164976    0.11664225682616    0.92679738685218
F         0.18461409583818    1.44849666571043    2.61319261714922
F        -1.73194890762956    0.97100004916667    1.75251732782385
O        -0.16314963499572   -0.75562611471643    4.12694511596483
H        -1.91122654149495   -3.60794945349233    2.39081229619018
H        -0.54645230880041   -3.23819983987770    3.48983193843310
H         2.03867345192810   -1.94709537103847    3.01308837465723
H         1.64276505913919   -1.95321394373109    1.42655311448558
H         2.05551648723080   -3.34512736058584    2.16927974214294
H        -2.65451347957796   -3.79407562038424    4.76012712062419
H        -2.11325882911612   -2.14293800538429    5.07893388337775
H        -3.46924431597687   -2.43281202304136    3.97759225606293
18
Properties=species:S:1:pos:R:3 6.2.3=T gnorm:=T pbc="F F F" energy:=T 0.000976038110=T xtb:=T 830e466=T -37.897739462465=T
C      -0.15332542       0.11149079       1.97144957 
C      -1.58267632      -3.09212353       3.05073256 
C      -2.41389464      -2.78359815       4.28787084 
C      -0.04327767      -1.31824878       2.56105980 
N       1.01200464      -1.97603671       1.84673828 
O      -1.26220138      -1.90195637       2.31821481 
F      -0.32144985       0.12955948       0.65763096 
F       0.97963188       0.80012700       2.23825161 
F      -1.14718223       0.80594520       2.52480514 
O       0.19909350      -1.21450111       3.94595239 
H      -2.15361583      -3.70080290       2.34576067 
H      -0.66847875      -3.62417717       3.32836548 
H       0.75503629      -0.45384884       4.15139999 
H       1.05918318      -2.95962948       2.07504852 
H       1.91333172      -1.54622386       2.00671629 
H      -2.71594817      -3.71343462       4.76281985 
H      -1.83290156      -2.19302240       4.99090591 
H      -3.29913940      -2.22080854       4.00376732 
