16
 energy: -21.762418744369 gnorm: 0.000752238227 xtb: 6.2.3 (830e466)
C        -0.57559620043695   -1.25941688236070    0.15281893213294
C         1.88580687099789    0.46060598245913   -0.53494951651696
C        -0.43123089902964    0.21189257019791    0.40032660548909
C         0.62781459574590    0.95469593657956    0.10075143435019
O        -1.54630907554981    0.75148064278593    1.00483378388126
O        -3.81809815185844   -0.93362031539136    1.68380995068645
H        -1.42430161907599    1.70007740110752    1.12868157086244
H        -3.12607218539942   -0.33027146810857    1.38413393529484
H        -3.75946356933578   -0.95798298847838    2.63977247545142
H         0.61019299376587    2.01507537192542    0.32670681243126
H        -0.31592919578631   -1.50260053857674   -0.87428177887177
H        -1.60411782630113   -1.55776594725179    0.33442181215223
H         0.07454066109711   -1.82482267150782    0.81857254661514
H         2.04777287544211    0.96174587490275   -1.48957592982360
H         1.85354757321812   -0.61058456885328   -0.70381846218604
H         2.74014315251239    0.68619160057178    0.10339582803606
16
Properties=species:S:1:pos:R:3 6.2.3=T gnorm:=T pbc="F F F" -21.784864617466=T energy:=T xtb:=T 0.000235129823=T 830e466=T
C      -1.20369441      -1.36101491      -0.34025918 
C       1.20994130       0.31024475       0.37695413 
C      -1.32428022       0.04655066       0.23038087 
C      -0.11502692       0.42680163       1.12009972 
O      -1.46106684       0.94332353      -0.85001392 
O      -0.04666861      -0.39767882       2.26278355 
H      -1.50879112       1.84497536      -0.51378514 
H      -2.22859741       0.09674803       0.86798860 
H      -0.88989154      -0.37071614       2.72808234 
H      -0.25708768       1.47972188       1.43324959 
H      -0.45667118      -1.36887336      -1.12752878 
H      -2.15431864      -1.67037974      -0.76496223 
H      -0.91408397      -2.05186118       0.44662028 
H       1.12674252       0.78473695      -0.59679091 
H       1.46379552      -0.73764373       0.25305645 
H       1.99839920       0.78976508       0.94972463 
