13
 energy: -16.684426654872 gnorm: 0.000441000096 xtb: 6.2.3 (830e466)
C        -0.80564969442550   -1.21848368564401   -0.22355959969998
C         1.90848950307100    0.39207174996427   -0.19410445014449
C        -0.61469771920782    0.24891761195934   -0.00307680083662
C         0.52823318654348    0.92677569421639    0.00923975810294
O        -1.82269027323556    0.86880069026580    0.19957524330047
H        -1.68636735829613    1.81261906459397    0.34053888668136
H         0.48622917738081    1.99679146571810    0.18545178885581
H         0.13599267927223   -1.72800901599483   -0.38908221472746
H        -1.45392402576296   -1.37030724450228   -1.08486079359622
H        -1.30135102615154   -1.65018346508916    0.64425640623499
H         2.37634509900794    0.88172387276568   -1.04878390086599
H         1.91268620713432   -0.67893964037474   -0.36742421304739
H         2.52301424466973    0.60215290212147    0.68187988974259
13
Properties=species:S:1:pos:R:3 6.2.3=T gnorm:=T pbc="F F F" -16.676522606364=T 0.000775414565=T energy:=T xtb:=T 830e466=T
C      -0.45736356      -0.91738632       0.44433512 
C       1.79565875       0.19736163      -0.26637321 
C      -0.80094890       0.15044510      -0.54816202 
C       0.41310416       0.30267778       0.32544551 
O      -1.93993738       0.91439151      -0.30371900 
H      -1.77401841       1.82831719      -0.56289215 
H       0.32667360       1.02418340       1.12956737 
H      -0.63678562      -0.06649116      -1.60273004 
H      -0.08548385      -1.85853245       0.06862091 
H      -1.09403559      -1.00313045       1.31031416 
H       2.12142996       1.16047884      -0.65662751 
H       1.80853389      -0.52596632      -1.07850745 
H       2.50948296      -0.12241874       0.49077832 
