8
 energy: -11.606008024902 gnorm: 0.000367574688 xtb: 6.2.3 (830e466)
N        -1.98870863555325    0.60642733527431   -0.26536335099912
C         1.02028706587391    0.16229073006902    0.88761481919801
O         1.04353048694139   -0.46453082860911   -0.12974288256317
H        -2.18619076889775    1.34131044448052   -0.93450970497716
H        -2.81634773062850    0.02514268071339   -0.20439100239002
H        -1.24803678775522    0.03499820506392   -0.65775943102483
H         1.89077585803260    0.22196778030886    1.56210074615540
H         0.12980051198685    0.71878365269836    1.21655080660033
8
Properties=species:S:1:pos:R:3 0.000291771775=T gnorm:=T pbc="F F F" -11.602051453638=T energy:=T xtb:=T 6.2.3=T 830e466=T
N      -1.46970719      -0.48402535      -0.55121549 
C       0.22222665       0.74020427       0.55568800 
O      -0.09336696      -0.28250892      -0.36101984 
H      -0.16113288       1.71261246       0.21967953 
H      -1.88718728       0.38538665      -0.88855565 
H      -1.89556474      -0.71978450       0.34704869 
H       1.30810544       0.77264428       0.59856604 
H      -0.17826305       0.52186111       1.55430872 
