11
 energy: -17.522529733379 gnorm: 0.000952826514 xtb: 6.2.3 (830e466)
C         1.03335073115458   -0.09516947493884    1.75267688197617
C        -0.05411429348917   -2.66723880122897    2.55275785632429
C         0.03677937592485    0.32392519669477    0.98928520140425
O         2.06323681323107   -0.83306779521482    1.26143809091345
O         0.95996297880638   -2.77769370207688    3.17593255770170
H         2.54606883685137   -1.25744660818990    1.97882127497075
H         1.07958505179703    0.15206309525250    2.80740779417476
H        -0.14755240803173   -2.99630880363582    1.50642795653980
H        -0.97227331432589   -2.23591481461423    2.98415176589780
H        -0.74481175290187    0.94140738669734    1.38851780978051
H         0.00207798098327    0.08024432125503   -0.05722718968343
11
Properties=species:S:1:pos:R:3 6.2.3=T gnorm:=T pbc="F F F" 0.000979428958=T -17.573595249792=T energy:=T xtb:=T 830e466=T
C       0.66423357      -0.74700034       1.37978911 
C       0.17435086      -1.81204709       2.34219779 
C      -0.12720059       0.13931531       0.79446585 
O       2.00481881      -0.78044095       1.16160473 
O       1.15244823      -2.09428715       3.32380806 
H       2.37814190      -1.46376471       1.74257550 
H       1.22320089      -1.33947268       3.91852899 
H       0.03030537      -2.75297942       1.80082892 
H      -0.77996926      -1.51919153       2.79078866 
H      -1.18359178       0.14455462       0.98277092 
H       0.26557200       0.86011396       0.10283149 
