11
 energy: -17.527103170547 gnorm: 0.000364027570 xtb: 6.2.3 (830e466)
C         0.40222739114911   -0.11644758561498    1.73034646235338
C         0.66802089527563   -3.19306268135132    2.89734472311670
C         0.48348369544533    1.07529676616022    1.16678907300483
O         0.39310903912314   -1.30244033927386    1.06863227787696
O         0.87533229884590   -2.49751687891427    3.84502031158428
H         0.47261262528742   -1.13556794070796    0.11961380611147
H         0.33912365364120   -0.26761943717684    2.79758998300426
H         1.47559626319922   -3.59858188950072    2.26709763311516
H        -0.34562318153525   -3.49515374950515    2.58958782748925
H         0.48575178282156    1.96833893520800    1.76040348520565
H         0.55235553674640    1.19746480067716    0.09757441713831
11
Properties=species:S:1:pos:R:3 6.2.3=T gnorm:=T pbc="F F F" -17.559822700213=T energy:=T xtb:=T 830e466=T 0.000525570823=T
C      -0.62020847      -0.00519078       2.17462501 
C       1.55169551      -2.92983027       2.23980826 
C       0.17199320       0.56651421       1.28572421 
O       1.44276893      -2.26381272       1.10854244 
O       1.10805322      -2.59283258       3.29671468 
H       0.93515084      -1.42847652       1.23813570 
H      -0.33083583      -0.12897106       3.20553616 
H       2.12022734      -3.85896462       2.07331381 
H      -1.59507493      -0.38132567       1.90863378 
H       1.13920494       0.96183540       1.55344781 
H      -0.12098476       0.69576462       0.25551814 
