11
 energy: -17.522250645218 gnorm: 0.000604825882 xtb: 6.2.3 (830e466)
C         1.15757398228988   -0.10429661308557    1.61421384125016
C        -0.11500713521976   -2.50505155244913    2.63130151353134
C        -0.13127683825661   -0.10108094487190    1.30523329842006
O         2.09400825895220   -0.66407088162169    0.80483432078871
O         0.20343034555958   -2.28872145457196    3.76456572520562
H         2.96892854480620   -0.59789867379722    1.19923099808761
H         1.51410063129722    0.33222968065680    2.53973550433601
H         0.59291249994336   -2.87057925029039    1.87137055261437
H        -1.15414663048505   -2.41022245146455    2.27798201775179
H        -0.84799802841483    0.36504574664894    1.95268685837276
H        -0.48031563047306   -0.52045360515273    0.37882536964153
11
Properties=species:S:1:pos:R:3 -17.576200765016=T 0.000260987497=T gnorm:=T pbc="F F F" energy:=T xtb:=T 6.2.3=T 830e466=T
C       1.40659617      -0.89224846       1.74045810 
C      -0.77266787      -1.76446266       2.65229928 
C      -0.11405336      -0.89999929       1.62330866 
O       1.91717947      -0.03501947       0.74197174 
O      -0.20998103      -2.40182678       3.49681212 
H       2.87689328      -0.01247882       0.80688967 
H       1.69291739      -0.54302545       2.74183859 
H       1.78785296      -1.91458964       1.61227096 
H      -1.87825592      -1.77191953       2.57139595 
H      -0.49683363       0.11895386       1.72283463 
H      -0.40743747      -1.24848375       0.62990030 
