11
 energy: -17.523356619881 gnorm: 0.000721078189 xtb: 6.2.3 (830e466)
C         1.01971063696484    0.08608741219480    1.70532012434943
C        -0.00931293638029   -2.84529839208020    2.59456468678214
C         0.17227189472358    0.43032062335905    0.75213265307970
O         1.57759467909761   -1.16048075148891    1.76449633269818
O         0.23504194863290   -2.74283634090312    3.76205124244712
H         2.15338693079084   -1.23417525722342    2.53264276483169
H         1.30931748387255    0.77700822365201    2.48687858418932
H        -0.82332083004494   -2.28715872898489    2.10668380481845
H         0.52886543360884   -3.54020575436677    1.93190251541356
H        -0.25201343553011    1.41477928037385    0.72241043746729
H        -0.10942180573563   -0.26304031453246   -0.01898314607688
11
Properties=species:S:1:pos:R:3 6.2.3=T gnorm:=T -17.574546735999=T pbc="F F F" 0.000580761540=T energy:=T xtb:=T 830e466=T
C       0.31146251       0.08035397       2.37541326 
C       0.47378854      -2.27840372       2.17284486 
C       0.13899129       0.33784078       1.09162069 
O       1.52850383      -2.39973764       1.27670857 
O       0.53575199      -1.12909169       2.97101317 
H       2.36230267      -2.34876255       1.75956766 
H       0.29338451       0.84879261       3.13597399 
H      -0.44205692      -2.28980959       1.56762578 
H       0.45439490      -3.11220265       2.89128135 
H      -0.03699378       1.34587935       0.76732505 
H       0.18259047      -0.41985887       0.33072561 
