21
 energy: -31.056046802113 gnorm: 0.000904428308 xtb: 6.2.3 (830e466)
C         2.32524947727169   -1.68250585475495    1.07737343390944
C        -3.32619346610083   -2.61668283478036    0.77409720910142
C        -3.29839425167775    0.41715748088756   -0.07457791903813
C         1.11975672105743   -2.43397268073338    1.54874116213021
C        -2.93134472387951   -0.76679710966740   -0.91164343424621
C        -2.95133152987068   -2.04695419411226   -0.55283149839165
O        -0.06596567098448   -2.08544763055415    0.99938495114531
O        -0.01076082582497   -1.04279289958331    0.04501996505410
O         1.09456218557303   -3.31248128462181    2.36224956855350
H        -0.94446116236343   -1.01223705781697   -0.26392719592869
H        -2.66018470517490   -2.79011297086880   -1.28584401504723
H        -2.64970778076537   -0.51801503163076   -1.92881171370401
H         2.19294700103357   -0.62216692529206    1.28587373417828
H         2.42433517338350   -1.79773766943799   -0.00024272420880
H         3.20729803431401   -2.06125244173456    1.58360081254272
H        -3.72320485571041   -1.86646156681720    1.45098313267804
H        -2.45244597340854   -3.07697016521250    1.23595263916592
H        -4.07541558407550   -3.39566234823735    0.63864025906153
H        -3.47080790827128    0.15026872017318    0.96314956992519
H        -4.20388577698039    0.87894558259122   -0.46847485502700
H        -2.50674437754633    1.16495888220690   -0.11563308184967
21
Properties=species:S:1:pos:R:3 gnorm:=T 6.2.3=T 0.000349792296=T -31.066562010074=T pbc="F F F" energy:=T xtb:=T 830e466=T
C       1.46501859      -2.58317738       0.54759010 
C      -3.11170481      -2.70517796       1.39421418 
C      -3.82289440      -0.34903045      -0.39375280 
C       0.24817129      -1.69515678       0.31533656 
C      -2.42865189      -0.79847878      -0.09334502 
C      -2.11901819      -1.83074788       0.68147508 
O       0.43677701      -0.40316384       0.87622958 
O       1.06433823       0.43591448      -0.08794481 
O      -0.83570854      -2.27431730       0.95245019 
H       1.11599124       1.27439653       0.38986647 
H       0.06482379      -1.56609804      -0.76636979 
H      -1.65823078      -0.20001418      -0.55430390 
H       2.34016531      -2.11583921       0.10580320 
H       1.29718948      -3.55393564       0.09198116 
H       1.61601581      -2.70613296       1.61623697 
H      -3.72605396      -2.11852301       2.07319202 
H      -2.56656491      -3.45037168       1.96571548 
H      -3.76171286      -3.21162747       0.68371049 
H      -4.56396178      -1.02673595       0.01659483 
H      -3.96740824      -0.28375847      -1.47200752 
H      -3.99328039       0.64505596       0.02040753 
