[Molden Format]
[Geometries] (XYZ)
12

C        1.584970       1.457251      -2.044844
C        0.967948       0.687446      -0.871318
C        0.948389      -0.790853      -1.108316
O        1.504209       2.845368      -1.882723
O        0.135871       3.252919      -1.977994
O        1.234397      -1.626436      -0.299881
H        0.207888       4.212926      -1.906800
H        2.661046       1.279290      -2.111959
H        1.104173       1.160146      -2.986187
H        0.621512      -1.070713      -2.130480
H        1.490782       0.915885       0.058571
H       -0.071973       1.016871      -0.773780
12

C        1.578248       1.360911      -2.232821
C        0.849409       0.639346      -0.804645
C        1.024599      -0.741174      -1.021800
O        1.505595       2.745382      -2.084761
O        0.163925       3.136975      -1.767777
O        1.437780      -1.635543      -0.356362
H        0.243173       4.098689      -1.710367
H        2.622827       1.061973      -2.123508
H        1.283708       1.050060      -3.242238
H        0.598977      -0.910463      -2.251778
H        1.229244       1.165081       0.078528
H       -0.103538       1.159669      -0.833470
12

C        1.573527       1.295352      -2.334796
C        0.822456       0.607279      -0.572012
C        1.130205      -0.696232      -0.827635
O        1.484555       2.670577      -2.205934
O        0.249718       3.091119      -1.613545
O        1.706897      -1.647286      -0.466202
H        0.339868       4.052530      -1.613734
H        2.582075       0.948056      -2.081866
H        1.412856       0.979442      -3.361766
H        0.560178      -0.654733      -2.290059
H        0.890413       1.246637       0.335384
H        0.010835       1.284248      -0.835996
12

C        1.592327       1.205342      -2.425288
C        0.861342       0.551429      -0.312173
C        1.233337      -0.662697      -0.635652
O        1.475949       2.572871      -2.308506
O        0.302831       3.027671      -1.618312
O        1.820129      -1.666071      -0.563900
H        0.418492       3.986056      -1.640997
H        2.570434       0.844953      -2.091704
H        1.536949       0.916522      -3.485108
H        0.656001      -0.257225      -2.346734
H        0.678098       1.090362       0.638780
H        0.211638       1.309448      -0.736765
12

C        1.576732       1.121498      -2.623209
C        0.811246       0.480601      -0.141028
C        1.270345      -0.656990      -0.495285
O        1.445670       2.473706      -2.474468
O        0.360475       2.920021      -1.637589
O        1.901573      -1.630399      -0.558296
H        0.469054       3.880929      -1.668713
H        2.509647       0.726737      -2.225456
H        1.614128       0.910375      -3.709612
H        0.732228       0.064215      -2.536063
H        0.456445       0.918208       0.794789
H        0.353322       1.309538      -0.663712
12

C        1.521846       1.086481      -2.823590
C        0.732292       0.431811      -0.028598
C        1.251695      -0.674199      -0.386436
O        1.388975       2.441165      -2.657024
O        0.388999       2.835335      -1.694829
O        1.955620      -1.589666      -0.543038
H        0.484104       3.798600      -1.688686
H        2.406549       0.666712      -2.357187
H        1.652587       0.926685      -3.911761
H        0.675622       0.240201      -2.731650
H        0.202210       0.771611       0.848043
H        0.492865       1.304811      -0.610095
12

C        1.448679       1.067885      -2.993283
C        0.613977       0.386668       0.056878
C        1.237167      -0.687786      -0.272117
O        1.324175       2.431121      -2.823530
O        0.457692       2.773355      -1.726379
O        2.027033      -1.506459      -0.533603
H        0.515933       3.741627      -1.712384
H        2.288262       0.635667      -2.462558
H        1.652865       0.939931      -4.068254
H        0.548705       0.329620      -2.886269
H       -0.050472       0.620046       0.865286
H        0.521373       1.275998      -0.538627
12

C        1.442260       1.118343      -3.078326
C        0.560455       0.388795       0.202810
C        1.302024      -0.608624      -0.117899
O        1.275039       2.488387      -2.933327
O        0.564362       2.792902      -1.728058
O        2.016424      -1.475594      -0.446611
H        0.585996       3.762384      -1.717500
H        2.266044       0.726247      -2.482370
H        1.701434       0.993241      -4.133646
H        0.516764       0.437289      -2.935163
H       -0.140060       0.468252       1.012493
H        0.475624       1.288409      -0.379751
12

C        1.437795       1.320238      -3.170578
C        0.423219       0.273061       0.360451
C        1.354751      -0.547369       0.021882
O        1.139363       2.674544      -2.972366
O        0.641976       2.858291      -1.643006
O        2.203632      -1.274149      -0.305350
H        0.573258       3.819527      -1.584359
H        2.210560       0.974742      -2.478319
H        1.807069       1.279915      -4.193325
H        0.546090       0.695705      -3.067702
H       -0.274587       0.049225       1.141528
H        0.326084       1.216370      -0.144566
[GEOCONV]
energy
0.0
32.6871141026
110.4280666
129.528886389
71.2424665708
42.3664409837
30.1484877983
21.9065911649
17.0709993196
max-force
3.1020954526e-05
0.0119070814508
0.00873688239502
0.00987645180037
0.00983969220087
0.00948483291285
0.00716235766568
0.00634577025981
6.79344677232e-05
max-step
1000.0
1000.0
1000.0
1000.0
1000.0
1000.0
1000.0
1000.0
1000.0
