[Molden Format]
[Geometries] (XYZ)
12

C        1.584970       1.457251      -2.044844
C        0.967948       0.687446      -0.871318
C        0.948389      -0.790853      -1.108316
O        1.504209       2.845368      -1.882723
O        0.135871       3.252919      -1.977994
O        1.234397      -1.626436      -0.299881
H        0.207888       4.212926      -1.906800
H        2.661046       1.279290      -2.111959
H        1.104173       1.160146      -2.986187
H        0.621512      -1.070713      -2.130480
H        1.490782       0.915885       0.058571
H       -0.071973       1.016871      -0.773780
12

C        1.568684       1.393036      -2.195145
C        0.858990       0.665910      -0.817048
C        1.002865      -0.716321      -1.055010
O        1.496484       2.778396      -2.037818
O        0.147339       3.180456      -1.776792
O        1.396970      -1.548706      -0.293198
H        0.235000       4.140407      -1.705054
H        2.620799       1.112444      -2.116801
H        1.240653       1.088205      -3.200897
H        0.605855      -0.914556      -2.230702
H        1.258199       1.141714       0.083083
H       -0.105716       1.164155      -0.835838
12

C        1.512530       1.340427      -2.269581
C        0.783437       0.685152      -0.642691
C        1.058929      -0.636653      -0.909515
O        1.436875       2.719417      -2.144460
O        0.165931       3.154338      -1.651592
O        1.623204      -1.575686      -0.496781
H        0.278207       4.113316      -1.619756
H        2.534756       1.009314      -2.038267
H        1.310456       1.005772      -3.290584
H        0.522609      -0.639560      -2.195998
H        0.928901       1.284185       0.272288
H       -0.080516       1.306372      -0.862756
12

C        1.508885       1.255466      -2.324723
C        0.768052       0.691709      -0.314867
C        1.112055      -0.516685      -0.778276
O        1.410950       2.608211      -2.212036
O        0.179008       3.141930      -1.689393
O        1.714045      -1.525239      -0.710704
H        0.345916       4.090674      -1.733841
H        2.514718       0.960528      -2.030433
H        1.347581       0.930470      -3.353398
H        0.599046      -0.263475      -2.115862
H        0.685687       0.974618       0.752259
H        0.010848       1.326034      -0.732619
12

C        1.553220       1.253795      -2.477436
C        0.838330       0.675740      -0.105983
C        1.181128      -0.488541      -0.542864
O        1.403441       2.598041      -2.349593
O        0.189664       3.079334      -1.734526
O        1.643216      -1.549283      -0.713116
H        0.344003       4.032185      -1.736413
H        2.529585       0.926146      -2.127723
H        1.520628       1.014643      -3.562691
H        0.816672       0.245851      -2.340411
H        0.622645       0.967458       0.922755
H        0.223567       1.413547      -0.592817
12

C        1.522166       1.249149      -2.693335
C        0.761787       0.621312       0.023328
C        1.198048      -0.510533      -0.385915
O        1.359534       2.605659      -2.531941
O        0.281525       3.023363      -1.674041
O        1.774486      -1.500141      -0.596091
H        0.375861       3.983959      -1.701005
H        2.448127       0.867261      -2.259392
H        1.599676       1.094861      -3.792666
H        0.769785       0.449961      -2.567964
H        0.358918       0.915101       0.982239
H        0.416806       1.459045      -0.555833
12

C        1.453049       1.238697      -2.864719
C        0.654001       0.556140       0.130535
C        1.224119      -0.533591      -0.235754
O        1.311147       2.601863      -2.690912
O        0.400931       2.968298      -1.642037
O        1.946784      -1.409489      -0.496292
H        0.454123       3.933831      -1.658627
H        2.320084       0.814824      -2.356500
H        1.623621       1.123033      -3.950093
H        0.627271       0.533412      -2.748101
H        0.053864       0.792627       0.991709
H        0.520338       1.436166      -0.473090
12

C        1.437210       1.236560      -3.002004
C        0.580748       0.496730       0.267458
C        1.291971      -0.514936      -0.074610
O        1.260668       2.607588      -2.851530
O        0.532703       2.925515      -1.659519
O        1.994476      -1.377717      -0.419848
H        0.557391       3.891582      -1.660162
H        2.271120       0.842653      -2.414219
H        1.680973       1.125889      -4.065001
H        0.566033       0.604315      -2.851815
H       -0.085314       0.573903       1.104884
H        0.500535       1.390009      -0.326217
12

C        1.437795       1.320238      -3.170578
C        0.423219       0.273061       0.360451
C        1.354751      -0.547369       0.021882
O        1.139363       2.674544      -2.972366
O        0.641976       2.858291      -1.643006
O        2.203632      -1.274149      -0.305350
H        0.573258       3.819527      -1.584359
H        2.210560       0.974742      -2.478319
H        1.807069       1.279915      -4.193325
H        0.546090       0.695705      -3.067702
H       -0.274587       0.049225       1.141528
H        0.326084       1.216370      -0.144566
[GEOCONV]
energy
0.0
23.2619177465
77.1240480154
112.453201745
64.2402821404
37.9770301049
28.4947615299
20.0536331925
17.0709993196
max-force
3.1020954526e-05
0.0120555502805
0.013027278322
0.00498720987491
0.00730355505081
0.00457620804561
0.00359733041089
0.00170563098002
6.79344677232e-05
max-step
1000.0
1000.0
1000.0
1000.0
1000.0
1000.0
1000.0
1000.0
1000.0
