56
 energy: -94.154627100372 gnorm: 0.000156866377 xtb: 6.4.0 (d4b70c2)
c         0.96554716999974   -2.74177403999975    0.17727162000002
c         1.16832473000018   -4.23932533000001   -0.00732709000009
c        -0.46061281000015   -2.35403843000006   -0.23247500999993
o        -0.76651547000013   -2.21196530999986   -1.41317611000005
o         0.78974222000022   -0.08232139999975   -0.23277365000020
o         1.13933489000016   -1.67997875000005   -3.47719251999990
n         1.87833775000024   -1.99667252000018   -0.67016258000001
c         1.62665881000004   -0.68879063999998   -0.88332230000005
c         2.37922721999985   -0.08253094999992   -2.04904987999982
c         1.46157352000017   -0.33046621999991   -3.28822829999975
n         2.66627241999974    1.31187143000019   -1.80260605999978
n        -1.33469471000015   -2.24546139999986    0.76859922000021
c        -2.73149367999982   -1.90189817000006    0.56162553000010
c        -3.56891233999997   -2.45022377999994    1.70579585000026
c        -2.90516107999983   -0.36998390999976    0.44567554999984
o        -3.52031218999983    0.28546418999994    1.25867307000022
n        -2.33310336000025    0.14155747000007   -0.65984389999975
o        -0.12435088000003    2.47852208999980   -1.42526253999986
o        -0.74487029000024    2.09218530999977    0.71258858999994
c        -2.31928166999980    1.56416543000019   -0.93812610999987
c        -0.92534579000004    2.10978061999980   -0.61017734999978
c        -2.68748764000025    1.83544721999977   -2.38973752999977
h         1.13595318000016   -2.44910077999997    1.21971923000010
h         0.95804688999974   -4.51991736000002   -1.03782475000005
h         0.49839099000004   -4.78977758999985    0.64786629000004
h         2.19326217999990   -4.50971496000007    0.23480977000026
h         0.44076954000011   -1.93833372999997   -2.84620459000008
h         2.40667669000014   -2.50954704999985   -1.36001871000015
h         3.32503996999977   -0.61673320999980   -2.19997117999999
h         1.99583327000015   -0.00862597000007   -4.18793456000020
h         0.56381566999979    0.29166647000004   -3.17294626000024
h         1.81710516000007    1.78003880000006   -1.49465940000000
h         2.96744853000006    1.76219508000006   -2.66061170000012
h        -0.99018959999988   -2.21185341000025    1.71986703000014
h        -3.03182981000008   -2.34691827000014   -0.39498053999977
h        -4.61736501999986   -2.22765621999982    1.53113047000019
h        -3.27527027000016   -1.97537407000008    2.63888434999983
h        -3.44003035000001   -3.52618875000004    1.79034292000024
h        -1.76995086999990   -0.46097822999995   -1.24883763999995
h        -3.03797923000001    2.01625060999982   -0.24373634000014
h        -2.70025139999993    2.90535559000015   -2.57711561000004
h        -3.66832728000007    1.42247481000020   -2.60820543000005
h        -1.95399454999982    1.38066160999975   -3.05122923999977
c         0.51722359000018    2.23847331999974    1.26055915999984
c         0.94182573999997    1.24207740000020    2.15356321000010
c         1.35182380000023    3.29404990999991    0.93955873000014
c         2.21983145999983    1.32383645000026    2.69986159999995
c         3.04958205999986    2.38213519999983    2.38473633000010
c         2.61435277999983    3.36264490999989    1.50796419000002
h         1.02288834000024    4.04841453999992    0.24236526999977
h         4.03869646000010    2.44036060000025    2.81264321000020
h         3.26398492000011    4.18573378000004    1.25238262000009
h         2.53920017000005    0.54118575999993    3.37183802000003
c         0.06254597999988    0.10514940999985    2.41603171999990
o         0.40688003000009   -0.97371238999989    2.84721420000026
h        -0.99395227999993    0.30077797999989    2.17213985000023
56
 energy: -94.090906670766 gnorm: 0.094145421911 xtb: 6.4.0 (d4b70c2)
c         0.95443641222637   -2.73476463274469    0.16696519526507
c         1.08300971130258   -4.25166262026535    0.18553131112268
c        -0.50396693333935   -2.41460368130416   -0.18334917599580
o        -0.82411841135479   -2.18449130797551   -1.34626260138177
o         1.05568372532777   -0.18653170017901   -0.16476663216212
o         0.84799719923357   -1.68126075799167   -3.50741488429572
n         1.83092000685845   -2.15923386014575   -0.83655286206867
c         1.62213343470282   -0.84031810398493   -1.02682575865003
c         2.17310669071528   -0.11689303865426   -2.23757572253641
c         1.22948716788971   -0.33470685736642   -3.46283598522356
n         2.36381071968323    1.30620603455434   -2.07661452147010
n        -1.37210970269246   -2.33442663824635    0.82554008610846
c        -2.72817214394043   -1.90412241580482    0.52913814967975
c        -3.78031327424240   -2.52263303913323    1.43550472386428
c        -2.79883335846597   -0.35969308334557    0.51859750333976
o        -3.42563025368671    0.24457301607201    1.36179155373470
n        -2.13317231762170    0.17660145752192   -0.52081647600612
o         0.01400706327944    2.73129172325323   -1.32109982719164
o        -0.68579489759466    2.12955419038889    0.72112963318014
c        -2.11200896894978    1.53848092601519   -1.01708440017259
c        -0.78334464784255    2.18399418938830   -0.60932555751328
c        -2.20468816478860    1.47744727393807   -2.53498776005762
h         1.25407922845241   -2.33569254273502    1.14284865231608
h         0.11854474661418   -4.70633601157224   -0.03345162346592
h         1.44322762640670   -4.63892158554267    1.13493155426375
h         1.78314126636547   -4.59069538196344   -0.57414637142230
h         0.03479748124461   -1.91931682352560   -3.02272721120062
h         1.93814803060389   -2.64402350072880   -1.71494056654417
h         3.19180109437288   -0.49612662406283   -2.38302212439067
h         1.66470764907224   -0.05697031211510   -4.42820199224390
h         0.38466185436863    0.36514640250662   -3.41007429443328
h         2.80271381252320    1.55072670118708   -1.19192780450943
h         1.45940413219962    1.76318026470683   -2.02280563899114
h        -0.96197613953826   -2.24671421871515    1.74685475156540
h        -2.86169208246002   -2.28437573046437   -0.49111657419002
h        -4.68995390523951   -2.28602656637593    0.89156664235959
h        -3.61457922278947   -2.02285373223775    2.38688000788850
h        -3.61458647380489   -3.59649218784401    1.46414994993155
h        -1.67201255683636   -0.54035030893704   -1.06891816502198
h        -2.93257379090119    2.13186535320458   -0.59559581006257
h        -2.08654655639162    2.47145290986728   -2.95685590616679
h        -3.08180301517547    0.96354236034687   -2.91825282624875
h        -1.38410174865332    0.87424655732572   -2.91603916604555
c         0.52460795591927    2.37939815480400    1.34326764861472
c         0.98997732819427    1.30374631061537    2.11589456316679
c         1.27027117947310    3.52971675140441    1.15727281235199
c         2.18410768115178    1.42304956053888    2.82175886377827
c         2.92668533155871    2.56171962115185    2.57722849915900
c         2.47359764927338    3.64132675874712    1.83647676624888
h         0.95475527316866    4.41960256761889    0.63583619611771
h         3.88758104722044    2.60208472161528    3.06701604934137
h         3.07928512611860    4.47399903044354    1.51302865261173
h         2.53025781889772    0.58484612495452    3.40800609711192
c         0.15248870631922    0.11464556155413    2.25474687481260
o         0.53427808270030   -0.94215824522449    2.70843134267107
h        -0.87556946204946    0.36689411977655    1.94911738593917
56
 energy: -94.087672013250 gnorm: 0.097807194504 xtb: 6.4.0 (d4b70c2)
c         0.80723537310660   -2.74691317992618    0.08406287160040
c         1.27612958831444   -4.19480232663378    0.12419496134360
c        -0.65113202478986   -2.53074171215908   -0.33854576602911
o        -0.91949443107365   -2.53982107489260   -1.53675925695813
o         1.02594389755832   -0.02111465235788   -0.34484095626699
o         0.88975005254709   -1.95868739760761   -3.73678387915648
n         1.70566239493928   -2.09567251727972   -0.85147023707966
c         1.56862885746884   -0.78304126758633   -1.12995799741046
c         2.26965835818416   -0.43297749989059   -2.42566007078041
c         1.15398368452699   -0.60322459957348   -3.50520133225377
n         2.84578153759390    0.89156348989749   -2.45973015091848
n        -1.52091715764101   -2.35068190523342    0.65594413761912
c        -2.89190758267702   -1.90514031447017    0.47209849543375
c        -3.65867361400020   -2.33729190927838    1.71160308977713
c        -2.88118963081869   -0.36765614093095    0.30963696923465
o        -3.53531127162004    0.34869655276286    1.03623992042196
n        -2.09174401725528    0.10400208549158   -0.67291691173829
o        -0.04652454291999    2.94093218259545   -1.07752211661124
o        -0.67964093408553    1.98941676532715    0.81732339090534
c        -2.05321974970122    1.51174222374480   -1.01676151534859
c        -0.77372065245519    2.17891432739646   -0.50094458952560
c        -2.29114264183961    1.80444010689685   -2.49123290165933
h         0.95233947565944   -2.25423031078864    1.05236101863725
h         1.40260066637218   -4.45584167009647    1.17335539859327
h         2.21603781619226   -4.43764509555317   -0.36436127856664
h         0.46974356629973   -4.75157419762174   -0.34695710019382
h         0.25165148133834   -2.24880740917651   -3.05741122390489
h         2.01948616818234   -2.55699607305718   -1.69217175411329
h         3.09440050422365   -1.11243781599961   -2.67232814555374
h         1.57098118901755   -0.09822922561488   -4.38245770234450
h         0.21322387083557   -0.14873904012305   -3.16649490490718
h         3.77860356333050    0.99194225739301   -2.06620246065440
h         2.17317440941795    1.53861707619690   -2.06149224669308
h        -1.14211151494174   -2.44546248354066    1.58988561880601
h        -3.32863715330374   -2.40314623611397   -0.40231404715799
h        -4.63137896092557   -1.85684794527474    1.75972022632318
h        -3.21762135594063   -1.88864905010559    2.59848220600633
h        -3.74810574778106   -3.41447619537517    1.82621250360292
h        -1.49497228912724   -0.54483368341792   -1.17289623226202
h        -2.83611192410977    1.97146677155808   -0.40127994484094
h        -2.09414115655221    2.85292141554014   -2.69581723756021
h        -3.34737951092507    1.72905129248535   -2.73413421843271
h        -1.60488106597693    1.18065176592924   -3.05898858231215
c         0.48339314257437    2.35292261486200    1.47289044658767
c         1.04915084706786    1.36462398763462    2.29370232098180
c         1.01334231719424    3.63074301435918    1.45986504502519
c         2.22562301271920    1.64327167954921    2.98413249620579
c         2.81871289298845    2.88893097740552    2.91807525457829
c         2.21299834818939    3.84613937232392    2.12031890493798
h         0.52923462498700    4.39072904560149    0.86707145420495
h         3.77982692509129    3.16056162710249    3.32712097944751
h         2.68010201712589    4.81253636486253    2.23305827989630
h         2.58430894729865    0.79814690295908    3.55263870142691
c         0.36346445139541    0.08025356863633    2.41558213865768
o         0.93563724129478   -0.90613938277675    2.82555080149883
h        -0.70542238951470    0.17619440088551    2.16614549180136
56
 energy: -94.079292307402 gnorm: 0.102085601374 xtb: 6.4.0 (d4b70c2)
c         0.88507419786525   -2.76252956515348    0.00619417521937
c         1.02647337197192   -4.26274024544500    0.22351761520451
c        -0.56801098520225   -2.44601761478435   -0.36867530762017
o        -0.95567519984077   -2.67518374012354   -1.51104811899475
o         1.25671507970862   -0.35610538881596   -0.66492220204815
o         0.62004887562188   -2.23611105853975   -3.85885225145540
n         1.72200452643984   -2.43342347637478   -1.13299169625970
c         1.78487960846067   -1.12471849105342   -1.45341696723384
c         2.42263183605568   -0.73158948765217   -2.76930165037701
c         1.30802152145663   -1.01697067865163   -3.82539103644235
n         2.77921554852860    0.66599578621981   -2.85350948788480
n        -1.36043000603305   -1.99845031038295    0.60585707067000
c        -2.77238115020780   -1.69552649090787    0.44290834388196
c        -3.48914624932824   -2.13834846893275    1.70829887410080
c        -3.01433537717036   -0.17969547811435    0.25829916510286
o        -3.87969367334002    0.43011421023801    0.84844764173756
n        -2.19395655993337    0.31291889243185   -0.68796059866127
o         0.07536332211833    2.86894488095668   -0.86777077385825
o        -0.64409644267296    1.78672854355110    0.93119694940515
c        -2.09660043623466    1.73820508311009   -0.93398189354279
c        -0.75673289737828    2.18376474866434   -0.33855340654830
c        -2.28013431746783    2.15788387346412   -2.38537094187576
h         1.23232526279476   -2.12900397324317    0.83048471118225
h         2.07947184348105   -4.41975528588667   -0.00323021988625
h         0.34222454332810   -4.80063250572326   -0.42729935497513
h         0.95447507783805   -4.54159906769153    1.27198868797245
h         0.01332623097518   -2.40275076030521   -3.11252427122189
h         2.09865269722406   -3.05687675791749   -1.83122228927586
h         3.33830547800518   -1.33471747776468   -2.79142541959952
h         1.68530278476671   -1.01580675472943   -4.85307944993155
h         0.66332981374000   -0.13234734061020   -3.73526699958015
h         3.52470150810302    0.79030708692880   -2.17241165941508
h         2.06800869244461    1.28656809334586   -2.48102198885107
h        -0.93430184406699   -1.75734949723201    1.49186435117726
h        -3.15780865337632   -2.13581415560760   -0.48495601249540
h        -4.54276002197973   -1.88566821913592    1.78142920184642
h        -2.88044906152654   -1.88774668802154    2.57377477886221
h        -3.57027810899251   -3.21839855134073    1.79978019152971
h        -1.32156992117985   -0.16374700800737   -0.88502604264267
h        -2.79037650349902    2.27557253829129   -0.27595809288177
h        -2.31921701975646    3.24325002489503   -2.36462882217172
h        -3.12784907112810    1.60961598945816   -2.78674714313181
h        -1.42988516027371    1.88853186643320   -3.00741532113379
c         0.43651313858140    2.29702272234437    1.62864628109700
c         1.17598402070835    1.39801965452125    2.41319977587730
c         0.64955649842145    3.66156389391497    1.70914794239063
c         2.13110628277702    1.91984302448900    3.28145481038908
c         2.29685068632959    3.28469918869741    3.41367664463814
c         1.62104490291688    4.15025223359611    2.56889405849266
h         0.09338335492886    4.38246841730295    1.13095134651117
h         2.99699812958786    3.51634493078526    4.20169667552982
h         1.78642808366543    5.20490693179455    2.72754771552946
h         2.79699044950044    1.30956945484671    3.87327841566711
c         0.89726277019663   -0.03437929925733    2.34125923145710
o         1.45711714235442   -0.87815615658991    3.00686474847129
h         0.13558852167052   -0.31731197811224    1.59711962823956
56
 energy: -94.099235073298 gnorm: 0.099628677657 xtb: 6.4.0 (d4b70c2)
c         0.82937523240076   -2.89443717449660   -0.19854232711865
c         0.70984659146291   -4.38767252947666    0.07314941917741
c        -0.56014770217978   -2.29699790310490   -0.45242403198738
o        -0.96811667329666   -2.21166213367374   -1.60745454515136
o         1.25395414700694   -0.58791206936966   -1.06196638195939
o         0.61880008235152   -2.89313542392223   -4.11060552147133
n         1.64472099810629   -2.72676475764564   -1.38749351463990
c         1.69158953972319   -1.44713953578909   -1.81140037074424
c         2.29093858132873   -1.23042965384659   -3.18495356953111
c         1.17100102210374   -1.60983720163798   -4.20520508349149
n         2.59564657106741    0.15891897679657   -3.43862842450819
n        -1.32489733912631   -2.10078682974695    0.62210705724619
c        -2.72112822931758   -1.71211834608524    0.51534851872222
c        -3.54508307633261   -2.13152767717226    1.72210078039855
c        -2.82133017346967   -0.19862555108310    0.21590677047922
o        -3.73542266375228    0.45785529407257    0.66585786249333
n        -1.87599732959330    0.34626868372317   -0.57183309699732
o         0.09816333922759    3.25879318690707   -0.71910363265685
o        -0.38143744676452    1.87450196227834    0.98453686893222
c        -1.84665139026992    1.77392169366727   -0.82161549210198
c        -0.57765088169815    2.39571634217485   -0.22889902650292
c        -1.97349712240502    2.20653882689591   -2.27526531663237
h         1.27515836693067   -2.34198240267482    0.63660078385473
h         1.70437835831845   -4.80967022107639    0.20618552353674
h         0.27231257856515   -4.98287661446708   -0.72395996166787
h         0.04587622870440   -4.46162220552802    0.93100278478493
h         0.12595885366356   -2.81006574037687   -3.27209877559585
h         1.70273188354341   -3.52022132707054   -2.00809421078961
h         3.06172854345701   -2.00137154264033   -3.30429549993532
h         1.56060214205820   -1.40847392766530   -5.20827526165180
h         0.31645165917497   -0.94087195524565   -4.03626995688306
h         3.58634689862244    0.31422983419692   -3.26690694379628
h         2.03414776616476    0.73834186434217   -2.82327460105687
h        -0.95786595781894   -1.95528107087779    1.55422282385200
h        -3.10369352986986   -2.20974000955171   -0.38429384499560
h        -4.58757210023406   -1.96515058900680    1.46747821522885
h        -3.46575755699395   -1.40866028797811    2.53051421438076
h        -3.26775015965629   -3.16062892167767    1.93539983830884
h        -1.12115592871286   -0.20698958300361   -0.96070766718488
h        -2.64587586995788    2.17198857145090   -0.18453827436660
h        -2.07764170302438    3.28201366094719   -2.38700243287785
h        -2.89348534011610    1.76581376644501   -2.64903523058125
h        -1.13294626984318    1.85381591423430   -2.86811788891318
c         0.39724786401703    2.50150831999698    1.94112725838464
c         1.33119602882463    1.76290889336683    2.68460545757031
c         0.19244165684962    3.82212749497131    2.29870269989288
c         2.01480071605183    2.31085640953312    3.76666982262550
c         1.72932156953820    3.60173687154299    4.16656424714559
c         0.78313715811438    4.31736875302382    3.45091119493938
h        -0.60119611106235    4.38487975425565    1.83309314018158
h         2.17812428135905    3.97068141308855    5.07612339987233
h         0.64926067358324    5.37669786109496    3.60813104955214
h         2.70624534514506    1.58830529996840    4.17399649485600
c         1.58279581300111    0.39498190482496    2.23727871283158
o         2.07598814622634   -0.41303445424552    2.99378248105539
h         1.34934147146515    0.08692127848882    1.20551319162082
56
 energy: -94.096334338320 gnorm: 0.107641768444 xtb: 6.4.0 (d4b70c2)
c         0.73501457094189   -3.09478943795152   -0.40962157934095
c         0.68050440106531   -4.61261727076163   -0.30434761699436
c        -0.67411367454560   -2.57914353529182   -0.72684453395863
o        -1.18790512993262   -2.58296806212478   -1.84211132879813
o         1.09617428985491   -0.62715507568595   -1.48895339869277
o         0.46577007426885   -3.43721126385689   -3.82833192486734
n         1.67838851986824   -2.75927786535310   -1.46032859257381
c         1.54454667781214   -1.58183753885806   -2.10457622524576
c         2.13611279110829   -1.70603186256662   -3.49290476144736
c         0.96029424176302   -2.24389063898976   -4.36885113299765
n         2.61371965910660   -0.54878038617285   -4.21411777001215
n        -1.33038622017393   -2.13771356756547    0.34665614306955
c        -2.64003142141927   -1.51311213761769    0.42804219026450
c        -3.47352971796932   -2.02939679447082    1.58984573169223
c        -2.60076976804619    0.02940167826158    0.33069872578709
o        -3.52722618923357    0.68797547554336    0.75134958141193
n        -1.52962923810725    0.53899931013182   -0.30496323161239
o        -0.25818483414544    3.89817406875217   -0.22050069188391
o        -0.13143150331297    2.07632671774307    1.12367111543800
c        -1.51227719112644    1.91208776970593   -0.76947637524281
c        -0.56415392698043    2.77415995807954    0.07087917233521
c        -1.19284458870277    2.02061048260312   -2.25356896800028
h         1.15293424892292   -2.69000347333251    0.51929409884513
h         1.62957623951157   -4.93048798845276    0.12354832612597
h         0.53926819277528   -5.07679113062248   -1.27680956198042
h        -0.03866522092311   -5.02440310594067    0.39954518013958
h        -0.42756342800029   -3.33463754124898   -3.44843654852584
h         1.83359277275702   -3.48748424915646   -2.14129181071879
h         2.84424205604676   -2.54050036406014   -3.56309249360557
h         1.34240471894726   -2.52631793014713   -5.35511295940438
h         0.22908680017093   -1.42442265342058   -4.35807669888089
h         3.13020175241002    0.03747096448240   -3.56246412822156
h         1.92556501400831    0.06819764012469   -4.63298937017997
h        -0.76081290521172   -1.89919830382119    1.14879106349270
h        -3.12013095813812   -1.76906153740661   -0.52449872922426
h        -4.39091726868086   -1.44852553673944    1.57293412333462
h        -2.85309497242449   -1.99559352875919    2.48219102928253
h        -3.71808285767943   -3.07278662405613    1.40821197982565
h        -0.91428841152385   -0.10665357275043   -0.78620294178159
h        -2.51018229990945    2.32733304550383   -0.58281861651217
h        -0.87377016240856    3.04369345104612   -2.43096720240636
h        -2.09788975400218    1.88841930237101   -2.83986205237834
h        -0.41302579478139    1.35497782385329   -2.61582463108478
c         0.28494213954983    2.70361946557722    2.28457154159350
c         1.29155993019794    1.99589952787864    2.96014634305517
c        -0.34608686486315    3.78541660768600    2.87224338350728
c         1.72042519238109    2.53274677675386    4.17105295620198
c         1.18536313960123    3.69918880974516    4.68184438849973
c         0.14484012754304    4.35022777513118    4.03918321556104
h        -1.18575053744066    4.28160144856525    2.41169064376143
h         1.64250690493626    4.24652099975024    5.49196096850622
h        -0.30601367937739    5.22836565748258    4.47555906531420
h         2.55653606798417    2.00908060115341    4.61012375784511
c         2.04766303493064    0.96606525611816    2.25136044228171
o         2.81517998763473    0.21137847451505    2.80795066836909
h         1.97442178864374    0.97583406049874    1.15205034738402
56
 energy: -94.096198095021 gnorm: 0.105464231859 xtb: 6.4.0 (d4b70c2)
c         0.77315479072882   -3.26646583318926   -0.44487748349809
c         0.67939898947717   -4.77518939628839   -0.26371890275965
c        -0.63684500643309   -2.69945236275605   -0.65117816091119
o        -1.28823243220226   -3.13012063659268   -1.59882559981378
o         0.76520963916458   -0.99194554813741   -2.07185837549607
o         0.45686697164359   -4.05540473600350   -4.16922098946877
n         1.52212300049883   -3.04508836962755   -1.66821161767079
c         1.35654317675880   -1.97989921344433   -2.47894578365726
c         1.84740960004627   -2.02580857150790   -3.91064877179784
c         0.87710459788976   -2.87412546351187   -4.79268624101143
n         2.14023130955978   -0.72205213721709   -4.46015961971834
n        -1.11894721897046   -1.85788350670660    0.26386131182649
c        -2.45925870889522   -1.29870083897515    0.21093529741100
c        -3.34674626127419   -1.73016822477602    1.36733425494174
c        -2.36762594942662    0.24424659034655    0.17511766302309
o        -3.16408422502344    0.97784335615858    0.71961575120332
n        -1.36327253841467    0.68760115647752   -0.60321963844108
o        -0.87031624145660    4.15042617559175    0.33971718563006
o        -0.14662042609068    2.21999239742779    1.30836351631206
c        -1.14761859744972    2.10208434295046   -0.83597750843315
c        -0.75317650055454    2.95583989923809    0.37390700705133
c        -0.13270215841762    2.29902483511530   -1.95289481926741
h         1.28552332752401   -2.76589543993331    0.38476141443701
h         1.56122044376539   -5.34645001256243   -0.54819444622612
h        -0.17051882775521   -5.05826430800444   -0.87902011638322
h         0.41997945550943   -4.95753730257938    0.77632357177030
h        -0.50667735861110   -3.97933950708491   -4.03253514793402
h         1.78936998837298   -3.91494057317475   -2.10412450019766
h         2.72247069719835   -2.66886717444122   -3.75749917295874
h         1.22509914197468   -3.19291860797924   -5.78049023570283
h         0.06745652325179   -2.16453567905917   -5.01008113231026
h         3.09577623517204   -0.46882770788078   -4.21951847327542
h         1.55822317583159   -0.04747578221392   -3.97447927157498
h        -0.51606934520895   -1.44540402950447    0.96466280533916
h        -2.89886221806777   -1.73303629755263   -0.69539873779652
h        -4.11882036887368   -0.98344601876427    1.52734949205224
h        -2.86535685104515   -1.81403488859940    2.33872125556952
h        -3.86506862587187   -2.66913757249670    1.19087489854178
h        -0.69513996661237    0.00769845380274   -0.94736329253332
h        -2.09669130841526    2.49163882770099   -1.22404022791442
h        -0.21898192774048    3.32100086177280   -2.31080289502397
h        -0.35719017753912    1.54681617164642   -2.70396612087948
h         0.91957684255674    2.16948091306203   -1.71135675665521
c         0.15176420308209    2.79056413651093    2.53309508361919
c         1.31876572141440    2.30458589548886    3.14340701952202
c        -0.69003970256720    3.63151796824911    3.23878876352219
c         1.69532362751430    2.77676253274579    4.39787043368826
c         0.86542131279742    3.64016329170861    5.08604738205899
c        -0.31201118465304    4.07244032720084    4.49753869112364
h        -1.62021558048760    3.98231890202507    2.82039326248847
h         1.21782124074630    3.99986846493207    6.04065110531332
h        -0.99770982345098    4.65892470643070    5.08971484137057
h         2.64692190875324    2.64182514082717    4.89015428823297
c         2.19691424698786    1.36602022955814    2.44872901843483
o         3.33561701891442    1.20048912890710    2.82870599533126
h         1.71308623956975    0.83210410012643    1.61519054951412
56
 energy: -94.093400533143 gnorm: 0.114441080372 xtb: 6.4.0 (d4b70c2)
c         0.73776327913398   -3.35304195236234   -0.62020074959119
c         0.75468016009314   -4.69389976645302    0.10068025731239
c        -0.71653436769902   -2.87924753994913   -0.73289810137074
o        -1.54939588495240   -3.34725887822682   -1.50434049739223
o         0.65346213287029   -1.31773484719420   -2.22198753975023
o         0.51863703200831   -4.52019305094127   -4.49608401001803
n         1.23181811316046   -3.43449677054108   -1.98247185709703
c         1.05491200397241   -2.34162238983373   -2.75296791774242
c         1.55903796344901   -2.39314209805846   -4.17986439138186
c         0.52088173401165   -3.21635761475579   -5.00670852568409
n         1.68233335700862   -1.02950407404338   -4.64114205677669
n        -0.93010833314745   -1.80313674869575    0.02494718029502
c        -2.15550727511525   -1.02201126959187    0.01223601419538
c        -2.99571193275393   -1.34240895821213    1.23798401274247
c        -1.87757183985488    0.49834377844079   -0.02824202639675
o        -2.57139578368790    1.28120087090560    0.58391086878100
n        -0.81536017161353    0.90343487091993   -0.74845410561802
o        -1.45413377019780    3.91569572202793    0.85060390691031
o        -0.20434520712273    2.14043475151498    1.43931166193720
c        -0.63962786839517    2.34076949355493   -0.81651847974980
c        -0.94609609020653    2.85864142186655    0.59280384494286
c         0.76346635721952    2.72862825675012   -1.26063256249691
h         1.38553505984025   -2.63855532338243   -0.09934238220808
h         1.77017272030430   -4.83662694176479    0.46575271228520
h         0.58165105315008   -5.46473025532586   -0.64562300313641
h        -0.00888599910138   -4.65284230957524    0.87367352534388
h        -0.37836357665308   -4.78067111076830   -4.21248623135345
h         1.57907183902670   -4.27068357390414   -2.42776982109389
h         2.51581375505227   -2.91864042943329   -4.28542308664998
h         0.92857725826682   -3.25839837534941   -6.02184542032644
h        -0.42232138688682   -2.65467098821589   -4.97229637936382
h         2.03179612438034   -0.42499590007479   -3.90118090321926
h         0.73681963571041   -0.71072242438799   -4.82567980282888
h        -0.23596742086989   -1.54542434827151    0.71521989651357
h        -2.68081183825241   -1.28480365394644   -0.91422776147909
h        -4.04636722555081   -1.10666059913603    1.09711704887251
h        -2.71468423490664   -0.71795185109610    2.08263708611396
h        -2.98324169525755   -2.37472760703623    1.57801649638653
h        -0.21713858190387    0.25825860249718   -1.25142739297279
h        -1.40994131162431    2.67155480086880   -1.52382506949708
h         0.86000227884387    3.79783401918045   -1.09493033094498
h         0.81899096361089    2.60603265878105   -2.33869015315303
h         1.46263033185633    2.14287740446176   -0.66861987717593
c        -0.04216367888301    2.66456425325172    2.70956288998036
c         1.26901937776293    2.61646066883418    3.20859485561844
c        -1.03556591106108    3.26445396462921    3.46263985340596
c         1.50527064755642    3.09971109116000    4.49275968962660