[Molden Format]
[Geometries] (XYZ)
12

C        1.532901       1.604062      -2.427641
C        1.603703       0.291328      -1.637737
C        0.325713       0.073256      -0.869625
O        1.401985       2.718222      -1.585620
O        0.144020       2.658654      -0.925101
O        0.262544      -0.144960       0.307346
H        0.355404       2.884274      -0.008131
H        0.702357       1.572855      -3.143855
H        2.468189       1.797282      -2.956897
H       -0.581499       0.108820      -1.501370
H        1.726369      -0.533246      -2.341533
H        2.447315       0.309061      -0.945645
12

C        1.555798       1.556853      -2.493847
C        1.427768       0.368978      -1.622955
C        0.271744      -0.057474      -0.766221
O        1.441668       2.610595      -1.254965
O        0.041597       2.657525      -1.069778
O        0.323473      -0.246885       0.421094
H       -0.042457       2.941999      -0.149890
H        0.714541       1.790157      -3.138053
H        2.512253       1.437868      -2.959435
H       -0.663018      -0.208063      -1.334513
H        1.261217      -0.313872      -2.475821
H        2.399397       0.356156      -1.011178
12

C        1.613260       1.501503      -2.629038
C        1.274258       0.496141      -1.594964
C        0.269722      -0.189290      -0.733487
O        1.378450       2.489922      -0.962733
O        0.006749       2.758826      -1.100786
O        0.381991      -0.372259       0.453485
H       -0.229656       3.088317      -0.226643
H        0.845848       1.912526      -3.265696
H        2.506002       1.074571      -3.016875
H       -0.624022      -0.528838      -1.285735
H        0.919352      -0.060684      -2.521231
H        2.343176       0.508054      -1.066693
12

C        1.700953       1.418438      -2.727483
C        1.191439       0.593713      -1.585996
C        0.296494      -0.236577      -0.724292
O        1.288112       2.348574      -0.798074
O       -0.013735       2.794263      -1.065928
O        0.384571      -0.347948       0.469898
H       -0.300402       3.139286      -0.212026
H        0.994094       1.958888      -3.336231
H        2.465134       0.789323      -3.136541
H       -0.493934      -0.766108      -1.293998
H        0.773506       0.125728      -2.557051
H        2.284357       0.588308      -1.089445
12

C        1.775516       1.341705      -2.795424
C        1.132973       0.657259      -1.592671
C        0.313803      -0.250331      -0.717808
O        1.208343       2.184782      -0.753090
O       -0.018708       2.779421      -1.080582
O        0.330379      -0.269247       0.478750
H       -0.321466       3.125840      -0.227433
H        1.136490       2.044558      -3.312316
H        2.382339       0.607586      -3.309930
H       -0.333770      -0.946479      -1.296077
H        0.701047       0.266631      -2.592588
H        2.249388       0.625011      -1.099606
12

C        1.848835       1.287441      -2.840862
C        1.048834       0.658785      -1.647922
C        0.321643      -0.265854      -0.702563
O        1.119081       2.022632      -0.772033
O       -0.022579       2.767508      -1.135065
O        0.271975      -0.163152       0.491486
H       -0.338455       3.102157      -0.276606
H        1.316230       2.166448      -3.209144
H        2.314326       0.541178      -3.492169
H       -0.185823      -1.115997      -1.232074
H        0.601065       0.348175      -2.657449
H        2.235568       0.598721      -1.153618
12

C        1.870667       1.201234      -2.769949
C        0.924274       0.749465      -1.636635
C        0.358847      -0.331662      -0.765741
O        0.995207       1.987342      -0.772907
O       -0.013233       2.879507      -1.214387
O        0.249928      -0.291072       0.425719
H       -0.306526       3.288745      -0.385668
H        1.491363       2.146034      -3.112340
H        2.202941       0.426499      -3.454846
H        0.040255      -1.226321      -1.351494
H        0.327330       0.502851      -2.568567
H        2.505925       0.761675      -1.316471
12

C        1.943058       1.140035      -2.571849
C        0.807061       0.880238      -1.569765
C        0.482172      -0.364408      -0.795611
O        0.809523       1.996247      -0.676547
O        0.057272       3.053367      -1.256821
O        0.373233      -0.448561       0.389198
H       -0.220005       3.554545      -0.479360
H        1.759581       2.104873      -2.990330
H        2.144013       0.328001      -3.256875
H        0.354559      -1.242919      -1.461468
H        0.055891       0.756104      -2.392270
H        2.747598       0.930973      -1.549167
12

C        2.025894       1.081390      -2.313845
C        0.696729       0.987105      -1.553981
C        0.563604      -0.374000      -0.903075
O        0.577546       1.963337      -0.551693
O        0.381464       3.238545      -1.165396
O        0.350200      -0.598011       0.248899
H        0.200616       3.798325      -0.399432
H        2.109323       2.070598      -2.756316
H        2.064837       0.333247      -3.099842
H        0.700185      -1.186511      -1.645510
H       -0.137081       1.093188      -2.268310
H        2.855683       0.932395      -1.627309
[GEOCONV]
energy
0.0
37.658886573
132.556261136
175.075553393
167.864242313
172.626976462
153.110496035
45.0331724748
3.60051760237
max-force
2.22369479266e-05
0.00748669143039
0.00866503130916
0.00865894639037
0.00989962884736
0.00962702675606
0.00766342728473
0.0061022628807
4.39287707266e-05
max-step
1000.0
1000.0
1000.0
1000.0
1000.0
1000.0
1000.0
1000.0
1000.0
