[Molden Format]
[Geometries] (XYZ)
12

C        1.532901       1.604062      -2.427641
C        1.603703       0.291328      -1.637737
C        0.325713       0.073256      -0.869625
O        1.401985       2.718222      -1.585620
O        0.144020       2.658654      -0.925101
O        0.262544      -0.144960       0.307346
H        0.355404       2.884274      -0.008131
H        0.702357       1.572855      -3.143855
H        2.468189       1.797282      -2.956897
H       -0.581499       0.108820      -1.501370
H        1.726369      -0.533246      -2.341533
H        2.447315       0.309061      -0.945645
12

C        1.555974       1.654456      -2.440604
C        1.453987       0.361975      -1.624399
C        0.296309      -0.115089      -0.794688
O        1.488454       2.680760      -1.341841
O        0.082901       2.821139      -1.185740
O        0.334428      -0.334382       0.386801
H        0.011161       3.192073      -0.295098
H        0.683307       1.970241      -3.018898
H        2.497612       1.586372      -2.951182
H       -0.620411      -0.298473      -1.378075
H        1.283778      -0.340815      -2.456376
H        2.406158       0.298853      -1.087879
12

C        1.605950       1.575340      -2.635827
C        1.332440       0.504090      -1.599789
C        0.309779      -0.239065      -0.809632
O        1.448799       2.629468      -1.065922
O        0.084486       2.928035      -1.180148
O        0.359759      -0.434738       0.375326
H       -0.115667       3.293184      -0.307997
H        0.813871       2.022250      -3.220573
H        2.490673       1.188977      -3.098705
H       -0.543543      -0.610330      -1.411664
H        1.019704      -0.107778      -2.523822
H        2.325475       0.507505      -1.103908
12

C        1.690805       1.315621      -2.921889
C        1.382863       0.608633      -1.690161
C        0.332565      -0.067204      -0.876104
O        1.341314       2.314469      -0.743710
O        0.058934       2.794754      -0.961408
O        0.283271      -0.067614       0.320023
H       -0.217117       3.109654      -0.087918
H        0.930388       1.727362      -3.571307
H        2.568249       0.895954      -3.394233
H       -0.434518      -0.594249      -1.479859
H        1.078473       0.016658      -2.814464
H        2.323837       0.698282      -1.116098
12

C        1.720181       1.267551      -2.915496
C        1.276926       0.752457      -1.615473
C        0.361898      -0.130467      -0.852331
O        1.311475       2.233595      -0.724370
O        0.069254       2.827711      -0.978947
O        0.267766      -0.141405       0.344207
H       -0.200920       3.158258      -0.109891
H        1.049595       1.835330      -3.544660
H        2.442922       0.611673      -3.379420
H       -0.246062      -0.795071      -1.491254
H        0.917631       0.199482      -2.935469
H        2.251191       0.843217      -1.072772
12

C        1.843337       1.211497      -2.937361
C        1.184933       0.824455      -1.601341
C        0.379228      -0.148916      -0.752657
O        1.205111       2.113880      -0.777520
O        0.005238       2.823708      -1.000020
O        0.326478      -0.106219       0.442708
H       -0.287043       3.076765      -0.116097
H        1.349511       2.009184      -3.489621
H        2.337630       0.431079      -3.495618
H       -0.113596      -0.961801      -1.335656
H        0.753502       0.477708      -2.871641
H        2.160207       0.673661      -1.092109
12

C        1.962485       1.229873      -2.871530
C        1.068332       0.828192      -1.558202
C        0.387013      -0.225554      -0.715351
O        1.132507       2.056858      -0.786560
O        0.001031       2.874526      -1.065241
O        0.307421      -0.173088       0.488200
H       -0.246228       3.217304      -0.194693
H        1.544643       2.117188      -3.314394
H        2.331160       0.438709      -3.499948
H       -0.002534      -1.082104      -1.297464
H        0.509493       0.592661      -2.530023
H        2.340526       0.734860      -1.306079
12

C        1.978836       1.147962      -2.644504
C        0.887078       0.912919      -1.522340
C        0.468961      -0.306911      -0.751869
O        0.954375       2.053270      -0.703566
O        0.037867       3.036299      -1.176058
O        0.422368      -0.395213       0.442289
H       -0.242203       3.471663      -0.359463
H        1.769786       2.104141      -3.065160
H        2.184353       0.321357      -3.306007
H        0.199653      -1.154131      -1.413257
H        0.114489       0.811503      -2.323119
H        2.690848       0.880320      -1.632418
12

C        2.025894       1.081390      -2.313845
C        0.696729       0.987105      -1.553981
C        0.563604      -0.374000      -0.903075
O        0.577546       1.963337      -0.551693
O        0.381464       3.238545      -1.165396
O        0.350200      -0.598011       0.248899
H        0.200616       3.798325      -0.399432
H        2.109323       2.070598      -2.756316
H        2.064837       0.333247      -3.099842
H        0.700185      -1.186511      -1.645510
H       -0.137081       1.093188      -2.268310
H        2.855683       0.932395      -1.627309
[GEOCONV]
energy
0.0
21.0200933581
108.895992581
134.337705411
120.211963178
119.300566467
156.953582645
55.1682059726
3.60051760237
max-force
2.22369479266e-05
0.00279448959638
0.0049033242348
0.00626191508718
0.00979503467428
0.00850846198175
0.0069639085824
0.00593018776819
4.39287707266e-05
max-step
1000.0
1000.0
1000.0
1000.0
1000.0
1000.0
1000.0
1000.0
1000.0
