[Molden Format]
[Geometries] (XYZ)
12

C        1.322339       1.317410      -2.228499
C        0.702648       0.687939      -0.977251
C        1.260371      -0.671656      -0.680853
O        0.645316       2.468815      -2.652366
O        0.847643       3.516497      -1.701358
O        1.486175      -1.105598       0.411401
H        0.611357       4.303481      -2.209634
H        2.380815       1.546609      -2.052711
H        1.231245       0.649229      -3.089851
H        1.440571      -1.284018      -1.588289
H       -0.371703       0.564532      -1.149336
H        0.832233       1.346460      -0.117063
12

C        1.438216       1.252712      -2.277009
C        0.715195       0.726623      -0.995675
C        1.227295      -0.660580      -0.732592
O        0.539803       2.260327      -2.632556
O        0.709117       3.355772      -1.638610
O        1.690564      -1.075320       0.296985
H        0.645971       4.046223      -2.298509
H        2.369972       1.595883      -1.818925
H        1.377714       0.779264      -3.250490
H        1.022396      -1.368381      -1.563117
H       -0.359765       0.619687      -1.161563
H        0.854920       1.332744      -0.109956
12

C        1.580963       1.241711      -2.358052
C        0.676524       0.898388      -0.973612
C        1.226116      -0.609234      -0.777315
O        0.454133       1.871598      -2.628296
O        0.647837       3.202080      -1.447443
O        1.843075      -0.886535       0.226458
H        0.768259       3.815249      -2.173110
H        2.333679       1.583519      -1.653038
H        1.585969       0.971143      -3.406368
H        0.869541      -1.403146      -1.466649
H       -0.407370       0.830324      -1.077675
H        0.882468       1.362746      -0.022355
12

C        1.796932       1.231296      -2.557865
C        0.615792       1.112177      -0.931015
C        1.189685      -0.488671      -0.834430
O        0.498727       1.448978      -2.494365
O        0.582182       3.109686      -1.213053
O        1.853125      -0.683283       0.137913
H        0.752192       3.668499      -1.969056
H        2.502117       1.603012      -1.844130
H        1.951706       0.984811      -3.616526
H        0.825828      -1.285916      -1.484739
H       -0.479360       1.034660      -0.953973
H        0.921220       1.473898       0.034143
12

C        1.826344       1.351050      -2.628720
C        0.560425       1.393549      -0.935141
C        1.208685      -0.543322      -0.850231
O        0.554162       1.112967      -2.419007
O        0.571228       3.059134      -1.143155
O        1.887638      -0.602635       0.111017
H        0.897919       3.523047      -1.910654
H        2.480853       1.682227      -1.858855
H        2.018698       1.174850      -3.685504
H        0.863468      -1.417186      -1.413272
H       -0.545685       1.301045      -0.930107
H        0.910413       1.472650       0.069950
12

C        1.798433       1.405846      -2.552749
C        0.569179       1.627547      -0.987105
C        1.272407      -0.648013      -0.927500
O        0.611072       0.731439      -2.263524
O        0.581794       3.102641      -1.131513
O        1.938171      -0.469790       0.026552
H        1.082031       3.507257      -1.848718
H        2.482355       1.670996      -1.780088
H        1.948179       1.273718      -3.622018
H        0.983290      -1.602204      -1.385459
H       -0.551060       1.526450      -0.994265
H        0.910718       1.409242       0.002717
12

C        1.677218       1.363989      -2.393256
C        0.589138       1.804520      -1.052630
C        1.366736      -0.665935      -1.061137
O        0.782778       0.268813      -2.142982
O        0.608510       3.219715      -1.123386
O        1.976797      -0.359719      -0.091450
H        1.282248       3.577343      -1.692383
H        2.425906       1.612124      -1.643694
H        1.725250       1.236217      -3.450956
H        1.127206      -1.665578      -1.447569
H       -0.506446       1.672728      -1.135466
H        0.887355       1.506601      -0.061137
12

C        1.442015       1.309135      -2.290005
C        0.488433       1.937297      -1.193739
C        1.439529      -0.760157      -1.141830
O        0.909521      -0.005213      -2.114289
O        0.580912       3.346821      -1.261664
O        2.039414      -0.353784      -0.189730
H        1.497106       3.589752      -1.428541
H        2.369836       1.495683      -1.725863
H        1.351836       1.333196      -3.355040
H        1.194354      -1.802756      -1.434912
H       -0.565968       1.766883      -1.424893
H        0.678038       1.595606      -0.178235
12

C        1.249089       1.193239      -2.227987
C        0.231389       1.981400      -1.388166
C        1.626409      -0.792780      -1.041469
O        1.052701      -0.213458      -2.081989
O        0.370550       3.364346      -1.565321
O        2.307678      -0.264897      -0.213629
H        1.219615       3.647668      -1.206285
H        2.268645       1.448485      -1.915024
H        1.116833       1.411585      -3.288985
H        1.385317      -1.868405      -1.060341
H       -0.781610       1.733101      -1.714470
H        0.342394       1.699415      -0.332145
[GEOCONV]
energy
0.0
19.4355257057
137.998318278
136.152643802
133.506044565
116.910783622
64.3775438074
-36.6975015723
-63.1960960159
max-force
7.46444741752e-05
0.00475625270221
0.0155393402017
0.00980272281341
0.00878347927438
0.011269694266
0.0102410399104
0.00543598027946
6.5990219328e-05
max-step
1000.0
1000.0
1000.0
1000.0
1000.0
1000.0
1000.0
1000.0
1000.0
