[Molden Format]
[Geometries] (XYZ)
12

C        1.322339       1.317410      -2.228499
C        0.702648       0.687939      -0.977251
C        1.260371      -0.671656      -0.680853
O        0.645316       2.468815      -2.652366
O        0.847643       3.516497      -1.701358
O        1.486175      -1.105598       0.411401
H        0.611357       4.303481      -2.209634
H        2.380815       1.546609      -2.052711
H        1.231245       0.649229      -3.089851
H        1.440571      -1.284018      -1.588289
H       -0.371703       0.564532      -1.149336
H        0.832233       1.346460      -0.117063
12

C        1.481144       1.293621      -2.276389
C        0.718735       0.785969      -0.983144
C        1.226269      -0.613873      -0.728716
O        0.520799       2.253041      -2.604253
O        0.694129       3.383038      -1.611035
O        1.740429      -1.009268       0.286933
H        0.664159       4.070341      -2.280777
H        2.387228       1.646751      -1.784190
H        1.446382       0.840803      -3.259992
H        0.966552      -1.335116      -1.533110
H       -0.357612       0.688530      -1.143263
H        0.877788       1.381037      -0.089781
12

C        1.672684       1.281400      -2.448174
C        0.652894       1.014704      -0.975023
C        1.204880      -0.507691      -0.813343
O        0.459023       1.756294      -2.602060
O        0.621615       3.225195      -1.380522
O        1.855381      -0.757423       0.173159
H        0.768683       3.816886      -2.117074
H        2.401874       1.635939      -1.735532
H        1.737805       1.016006      -3.500736
H        0.837740      -1.301977      -1.483568
H       -0.437378       0.948416      -1.040530
H        0.902023       1.450334      -0.018625
12

C        1.860137       1.320948      -2.703682
C        0.599803       1.114401      -0.976835
C        1.130369      -0.412962      -0.845247
O        0.580059       1.310155      -2.460538
O        0.557840       3.228524      -1.281406
O        1.804460      -0.652998       0.114188
H        0.721944       3.779498      -2.049050
H        2.574826       1.686898      -1.991741
H        2.055823       1.135736      -3.760112
H        0.745481      -1.203068      -1.498287
H       -0.503656       1.020163      -0.911492
H        0.968836       1.429416      -0.007890
12

C        1.927971       1.380576      -2.775787
C        0.525740       1.469748      -1.001093
C        1.154770      -0.587285      -0.912061
O        0.631189       1.136110      -2.413030
O        0.479342       3.041289      -1.167040
O        1.870478      -0.605286       0.025381
H        0.834703       3.428273      -1.966525
H        2.655994       1.718178      -2.075848
H        2.124727       1.158656      -3.818336
H        0.841855      -1.456597      -1.506172
H       -0.571471       1.361714      -0.930936
H        0.953804       1.541353      -0.011830
12

C        1.790283       1.405151      -2.643211
C        0.545092       1.635869      -1.067074
C        1.246761      -0.645811      -1.008073
O        0.604081       0.723484      -2.337081
O        0.554100       3.080268      -1.209862
O        1.922236      -0.477577      -0.055260
H        1.070735       3.473158      -1.922107
H        2.485960       1.674769      -1.885610
H        1.933704       1.268070      -3.715074
H        0.952107      -1.599591      -1.461265
H       -0.571610       1.530645      -1.081187
H        0.893819       1.425966      -0.074402
12

C        1.636088       1.349302      -2.477152
C        0.544483       1.802145      -1.145945
C        1.313689      -0.667024      -1.157605
O        0.741236       0.262498      -2.211215
O        0.551538       3.219612      -1.222754
O        1.934762      -0.374922      -0.189677
H        1.225046       3.582073      -1.781727
H        2.394306       1.605463      -1.742489
H        1.676464       1.212723      -3.534796
H        1.062182      -1.658638      -1.539941
H       -0.550963       1.659643      -1.233010
H        0.844426       1.513318      -0.151172
12

C        1.418990       1.303681      -2.313177
C        0.471549       1.954104      -1.249453
C        1.416495      -0.776451      -1.200799
O        0.890365      -0.019042      -2.150575
O        0.545743       3.366494      -1.312333
O        2.018691      -0.389195      -0.237965
H        1.451427       3.627756      -1.521939
H        2.361057       1.482370      -1.769916
H        1.328187       1.343232      -3.379877
H        1.166381      -1.812252      -1.486576
H       -0.585065       1.779961      -1.477205
H        0.678390       1.607690      -0.234069
12

C        1.249089       1.193239      -2.227987
C        0.231389       1.981400      -1.388166
C        1.626409      -0.792780      -1.041469
O        1.052701      -0.213458      -2.081989
O        0.370550       3.364346      -1.565321
O        2.307678      -0.264897      -0.213629
H        1.219615       3.647668      -1.206285
H        2.268645       1.448485      -1.915024
H        1.116833       1.411585      -3.288985
H        1.385317      -1.868405      -1.060341
H       -0.781610       1.733101      -1.714470
H        0.342394       1.699415      -0.332145
[GEOCONV]
energy
0.0
27.5555645049
168.442699101
104.042383753
102.195788156
112.447098582
61.1437306369
-41.3699251349
-63.1960960159
max-force
7.46444741752e-05
0.00629493474013
0.0120299157866
0.00658986669924
0.00619803581175
0.0102912230165
0.0103214165411
0.00465196838085
6.5990219328e-05
max-step
1000.0
1000.0
1000.0
1000.0
1000.0
1000.0
1000.0
1000.0
1000.0
