12
Properties=species:S:1:pos:R:3 6.2.3=T gnorm:=T pbc="F F F" energy:=T 0.000692836342=T xtb:=T 830e466=T -21.591020664875=T
C       1.09198682       1.57997728      -2.31796121 
C      -0.13937568       2.47135009      -2.33962677 
C       2.15566597      -0.71450261       0.12419287 
O       1.04300901       0.88109140      -1.08735856 
O       2.17665502       0.02681117      -0.98285482 
O       3.02291416      -1.48666711       0.37911146 
H      -0.11318929       3.16499111      -1.50391231 
H       2.01151331       2.17470867      -2.37071700 
H       1.07838406       0.86673903      -3.15064697 
H       1.26226049      -0.52316793       0.74722914 
H      -0.16186904       3.03126372      -3.26980054 
H      -1.03894484       1.86710517      -2.26324527 
