12
Properties=species:S:1:pos:R:3 6.2.3=T gnorm:=T 0.000652962298=T pbc="F F F" -21.512828578627=T energy:=T xtb:=T 830e466=T
C       1.34242704       1.11428401      -2.30274448 
C       0.54997055       0.24232895      -1.66755896 
C       0.92591356      -1.15886588      -1.59651542 
O       1.18449357       2.42110987      -2.48116539 
O      -0.01016785       2.93828736      -1.90733756 
O       1.92444216      -1.64188694      -2.07508880 
H       0.06124273       3.88359742      -2.10004552 
H       2.42536895       2.76732460       0.37912057 
H       2.26861101       0.80339687      -2.77285747 
H       0.20140663      -1.78732009      -1.04482948 
H      -0.36838564       0.56239758      -1.20397191 
H       1.88375728       3.19495625       0.73718442 
