12
Properties=species:S:1:pos:R:3 0.000935273496=T 6.2.3=T gnorm:=T -21.614991743686=T pbc="F F F" energy:=T xtb:=T 830e466=T
C       0.42141751       0.77168082      -2.96181543 
C       0.36905316       0.58495233      -1.47164086 
C       1.36497440      -0.42966551      -0.99089093 
O      -0.53151318       0.96763708      -3.65959989 
O       1.68060350       3.22713700      -0.50969222 
O       2.45672962      -0.60024875      -1.45462427 
H       1.50539241       4.09818666      -0.87277255 
H       2.63348983       3.13337987      -0.43879854 
H       1.44592331       0.70891620      -3.37059114 
H       1.00581247      -1.03448320      -0.13642375 
H      -0.64326792       0.36539804      -1.13404767 
H       0.68028490       1.54680946      -1.03490274 
