12
Properties=species:S:1:pos:R:3 6.2.3=T gnorm:=T -21.562638201261=T pbc="F F F" energy:=T xtb:=T 830e466=T 0.000302757760=T
C       1.88243605       1.49305342      -2.08355172 
C       1.05665707       0.78507942      -1.05405058 
C       0.68558593      -0.48250303      -1.15860743 
O       1.16646597       2.47933879      -2.79458083 
O       0.85561827       3.56689442      -1.91737144 
O      -0.06432783      -1.16572837      -0.26605909 
H       0.45468678       4.20130868      -2.52444587 
H       2.76329856       1.95425717      -1.61561749 
H       2.19972445       0.80902750      -2.87378926 
H       0.98148625      -1.11188659      -1.98576807 
H      -0.32765237      -0.58067677       0.45614338 
H       0.73512087       1.39154535      -0.21800160 
