12
Properties=species:S:1:pos:R:3 6.2.3=T gnorm:=T pbc="F F F" 0.000733705255=T energy:=T -21.650323138469=T xtb:=T 830e466=T
C       1.30209088       1.95541805      -1.57099793 
C       0.49353213       0.80291834      -0.93642294 
C       1.13977481      -0.53096309      -1.13264564 
O       1.48651652       1.77225000      -2.94086868 
O       0.62100107       3.15594520      -1.38428862 
O       2.03757080      -0.75960789      -1.89884838 
H       0.52831525       3.56198489      -2.25483427 
H       2.28244268       2.01846968      -1.05628899 
H       1.93922908       0.92610313      -3.07521518 
H       0.70851957      -1.33546225      -0.50758956 
H      -0.49584609       0.76959823      -1.40282029 
H       0.34575331       1.00283571       0.12510048 
