12
Properties=species:S:1:pos:R:3 6.2.3=T gnorm:=T pbc="F F F" 0.000916805897=T energy:=T -21.510277275050=T xtb:=T 830e466=T
C       0.80117480       1.05798216      -2.36722584 
C      -0.47775666       0.63492712      -1.65416254 
C       3.11807844       0.16373412      -0.33453984 
O       1.07579581       2.43178872      -2.26098675 
O       1.47928359       2.73697558      -0.92138441 
O       2.87825485       0.54252005       0.70137885 
H       1.54871440       3.69927594      -0.95121750 
H       1.65986215       0.48383516      -1.98582713 
H       0.71884874       0.91477004      -3.44786813 
H      -0.64757877      -0.42652362      -1.80873149 
H      -1.32741072       1.19345710      -2.03947912 
H      -0.38716662       0.82796762      -0.58815609 
