12
Properties=species:S:1:pos:R:3 6.2.3=T gnorm:=T pbc="F F F" 0.000435896686=T energy:=T -21.510061298070=T xtb:=T 830e466=T
C       1.68633741       1.38514780      -1.48349813 
C       1.22135865       0.13037351      -1.39830446 
C       2.12480823      -0.95013687      -1.04249676 
O       0.89950609       2.41365908      -1.80272857 
O       1.61570706       3.63990808      -1.82619577 
O       3.30482315      -0.83402297      -0.81504097 
H       0.93932586       4.28352227      -2.08091807 
H       2.72981512       1.60892210      -1.29227348 
H      -2.36327363       1.82485064      -1.87364016 
H       1.63178832      -1.93892146      -0.98943911 
H       0.18514434      -0.09888916      -1.58640490 
H      -1.58644061       1.87518697      -1.84485964 
