12
Properties=species:S:1:pos:R:3 -21.571444456908=T 6.2.3=T gnorm:=T pbc="F F F" 0.000739440356=T energy:=T xtb:=T 830e466=T
C       0.63372200       1.20273094      -2.01611522 
C       0.00930130       0.55170863      -0.79010725 
C       0.76545978       1.26376607       0.32722049 
O       1.09804379       2.46625156      -1.55940829 
O       1.40263794       2.33036787      -0.18682987 
O       0.83223049       0.97807267       1.48103911 
H       3.35230301       1.45315605      -4.29938276 
H       1.47521766       0.61125832      -2.40104132 
H      -0.06768802       1.41888819      -2.82192159 
H       3.78804321       0.81128095      -4.35396513 
H      -1.05333878       0.77587865      -0.68216946 
H       0.15307762      -0.52385988      -0.73310870 
