12
Properties=species:S:1:pos:R:3 -21.629659375784=T 6.2.3=T 0.000471206410=T pbc="F F F" energy:=T xtb:=T 830e466=T gnorm:=T
C       0.77133512       1.40266191      -2.40588558 
C       1.01648669       0.93461451      -0.95149665 
C       1.97152321      -0.24199450      -0.97412553 
O       0.01037777       2.58103140      -2.41799205 
O       1.51376625       1.98671771      -0.17722448 
O       3.11748859      -0.22262044      -0.64541205 
H       1.30000661       2.81793057      -0.62543510 
H       1.72804814       1.66534858      -2.86419680 
H       0.29834712       0.60355088      -2.98914166 
H       1.48579437      -1.16383198      -1.35785729 
H       0.05665962       0.58038685      -0.52835369 
H      -0.88083350       2.39571451      -2.09866911 
