12
Properties=species:S:1:pos:R:3 6.2.3=T gnorm:=T pbc="F F F" -21.629659838922=T energy:=T 0.000812820245=T 830e466=T xtb:=T
C       0.83745832       1.15172422      -2.46691995 
C       0.97559251       1.06324276      -0.92758576 
C       2.05246643       0.04990291      -0.59408902 
O      -0.03761351       2.18963287      -2.81951562 
O       1.26732838       2.31992015      -0.39018245 
O       3.14708470       0.29640901      -0.19009117 
H       1.02129996       2.99220864      -1.04193348 
H       1.80451853       1.42274589      -2.89778403 
H       0.51598833       0.18698095      -2.87654579 
H       1.71690049      -0.99185567      -0.78432611 
H      -0.93353544       1.96882672      -2.53807731 
H       0.02152129       0.68988156      -0.50874931 
