12
Properties=species:S:1:pos:R:3 830e466=T 6.2.3=T gnorm:=T pbc="F F F" energy:=T xtb:=T 0.000823064329=T -21.604374768583=T
C       0.65504980       1.31065230      -2.77048642 
C       0.51031927       0.33780447      -1.60124634 
C       1.23265943       1.16040892      -0.53197160 
O       0.52848402       2.59127199      -2.19707174 
O       0.94641567       2.49558066      -0.82489097 
O       2.59867737       0.88137446      -0.60252674 
H       3.08625112       1.57366935      -0.14092064 
H       1.63913254       1.19465660      -3.24348087 
H      -0.13584393       1.22705478      -3.51556633 
H       0.85490572       0.98791051       0.48822252 
H       1.00609111      -0.61264677      -1.76767831 
H      -0.53304212       0.19187275      -1.32818257 
