12
Properties=species:S:1:pos:R:3 0.000954987364=T 6.2.3=T gnorm:=T -21.513680355560=T pbc="F F F" energy:=T xtb:=T 830e466=T
C       0.91576499       1.53087822      -2.22590869 
C       0.63600238       0.89095340      -0.88554073 
C       1.58415544       0.52539496      -0.08138677 
O       1.03895790       2.93034640      -2.15415329 
O       2.28089711       3.26061984      -1.53288090 
O       2.43482560       0.14274890       0.60912424 
H       2.14908454       4.18512168      -1.28553269 
H       1.82075811       1.10547561      -2.67446392 
H       0.06542997       1.39118217      -2.89676493 
H      -0.22437302      -2.08577059      -2.36027247 
H       0.06598413      -1.44493766      -2.02200658 
H      -0.37857715       0.90768706      -0.52602327 
