12
Properties=species:S:1:pos:R:3 6.2.3=T gnorm:=T pbc="F F F" -21.539822553153=T 0.000500568691=T energy:=T xtb:=T 830e466=T
C       1.83593880       1.42475940      -3.09966462 
C       0.08191038       0.21067014       0.32827497 
C       1.15903275      -0.47125656       0.15849888 
O       0.56489273       2.00214828      -2.93382713 
O       0.50922421       2.75065248      -1.72991483 
O       2.14634975      -1.06531815      -0.01582050 
H       0.40750890       3.66769287      -2.02191127 
H       2.08204205       0.75272761      -2.27435197 
H       2.61453704       2.18815035      -3.20036416 
H       1.74575783       0.85950138      -4.02541312 
H      -0.70731514      -0.12089957       0.97184076 
H      -0.05086931       1.14068176      -0.19323702 
