12
Properties=species:S:1:pos:R:3 6.2.3=T gnorm:=T pbc="F F F" 0.000890283482=T -21.596380966904=T energy:=T xtb:=T 830e466=T
C       2.11422563       1.77302431      -3.23280742 
C       0.10109877       0.96754755      -0.27334273 
C       1.00999071      -0.08029711      -0.85398866 
O       0.98049065       2.17347104      -3.23887423 
O       0.46021625       2.29313752      -0.48892700 
O       1.90895549       0.08390080      -1.63592379 
H       0.54443248       2.45717280      -1.44531712 
H       2.88956979       2.20087022      -2.58183493 
H       2.46913162       1.00540285      -3.93364925 
H       0.75750454      -1.09765212      -0.49385994 
H      -0.90728154       0.74225692      -0.66970641 
H       0.06057561       0.82077523       0.81242148 
