12
Properties=species:S:1:pos:R:3 6.2.3=T gnorm:=T pbc="F F F" 0.000287655071=T energy:=T -21.638945464986=T 830e466=T xtb:=T
C       1.65651745       2.11007070      -2.20708754 
C       0.22622451       0.51023278      -1.22361288 
C       1.16307200      -0.62165047      -0.87447001 
O       0.58064171       1.22751110      -2.38344661 
O       1.32601859       3.19361876      -1.39494368 
O       2.17623377      -0.90297206      -1.44331774 
H       0.61270228       3.69400769      -1.81047719 
H       2.51117713       1.62149159      -1.72650962 
H       1.93197498       2.42566654      -3.22174745 
H       0.80967636      -1.19298095       0.00917669 
H      -0.76935642       0.09462009      -1.40794609 
H       0.16410764       1.17998421      -0.35144786 
