12
Properties=species:S:1:pos:R:3 -21.561986097977=T gnorm:=T pbc="F F F" energy:=T 0.000699087226=T xtb:=T 6.2.3=T 830e466=T
C       1.82146820       2.41206865      -2.76289081 
C       0.05899338       0.61679196      -0.56843698 
C       1.14505617      -0.43265554      -0.66306367 
O       0.53757164       1.97183572      -2.39328938 
O       0.42429273       1.90593352      -0.97242947 
O       2.26208090      -0.26486455      -1.05093509 
H       2.01957076       3.41551702      -2.37737567 
H       2.59460278       1.71949549      -2.42000097 
H       1.78718838       2.43054267      -3.85086532 
H       0.78484568      -1.42616527      -0.32697983 
H      -0.81649223       0.26103174      -1.13154903 
H      -0.23016839       0.72976858       0.48221622 
