12
Properties=species:S:1:pos:R:3 6.2.3=T gnorm:=T pbc="F F F" -21.526365783594=T energy:=T 0.000614982549=T 830e466=T xtb:=T
C       1.48203598       0.75163144      -2.85911998 
C       1.30425490      -0.41675749      -2.24612502 
C       0.94670120      -0.51540983      -0.83093454 
O       0.13811624       3.17468787      -0.16285063 
O       1.03163856       3.58165507      -1.19273230 
O       0.70800077       0.41138006      -0.09322430 
H       0.99112430       4.54293549      -1.12414012 
H       1.37044468       1.68573215      -2.33159684 
H       1.74937372       0.81098493      -3.90076375 
H       0.90468839      -1.55190638      -0.44819230 
H       1.42538245      -1.35509168      -2.76956989 
H       0.33724882       2.21987838      -0.07634033 
