12
Properties=species:S:1:pos:R:3 -21.527981017994=T gnorm:=T 0.000676669194=T pbc="F F F" energy:=T xtb:=T 6.2.3=T 830e466=T
C       2.64738423       0.25181341      -2.78531482 
C       1.67058907       0.66906245      -1.98599823 
C       0.92627852      -0.25705781      -1.13978019 
O      -0.91337542       2.70274796      -0.20232533 
O       0.07849917       3.34452773      -0.99604877 
O       0.02456164       0.05520087      -0.39763120 
H      -0.17465186       4.27198945      -0.91286373 
H       3.19949015       0.92919809      -3.41419672 
H       2.92589934      -0.78914398      -2.83815011 
H       1.24824044      -1.31198282      -1.21810039 
H      -0.62655556       1.76315199      -0.22004525 
H       1.38266028       1.71009267      -1.92534525 
