12
Properties=species:S:1:pos:R:3 0.000967352400=T gnorm:=T 6.2.3=T pbc="F F F" energy:=T xtb:=T 830e466=T -21.566417485223=T
C       1.28561414       1.11980397      -1.24962816 
C      -0.22593586       0.87666700      -1.26654856 
C       2.05129822      -0.18539296      -1.27572101 
O       1.74018866       1.86844347      -2.35379905 
O       1.32119573       3.22569651      -2.20040974 
O       1.83040923      -1.11288548      -0.55402710 
H       1.72846797       3.64970816      -2.96688980 
H       1.55696916       1.64807579      -0.32081469 
H      -0.51228348       0.40639350      -2.20410615 
H       2.85403439      -0.20204919      -2.03442583 
H      -0.48967630       0.22280275      -0.44102757 
H      -0.75138185       1.82242649      -1.16841232 
