12
Properties=species:S:1:pos:R:3 6.2.3=T gnorm:=T 0.000918873927=T pbc="F F F" energy:=T xtb:=T -21.566435269459=T 830e466=T
C       1.89484964       0.90797219      -2.45805744 
C       1.12106584       1.18147296      -1.16596453 
C       0.97238612      -0.07334178      -0.33245621 
O      -0.18286724       1.66762941      -1.39126976 
O      -0.10441273       3.03343379      -1.80247226 
O       1.86470227      -0.82951824      -0.08373672 
H      -1.02950021       3.24209334      -1.98231721 
H       2.85070364       0.45632420      -2.21049616 
H       2.05773561       1.83868331      -2.99473129 
H      -0.05816938      -0.22936211       0.03510754 
H       1.32796004       0.22733118      -3.08917449 
H       1.67452640       1.91699176      -0.56023147 
