[Molden Format]
[Geometries] (XYZ)
12

C        1.212921       1.498709      -2.235128
C        0.663504       0.138320      -1.820697
C        1.143751      -0.284155      -0.458059
O        0.439523       2.455666      -1.537453
O        1.003137       3.742226      -1.674471
O        2.001442       0.255049       0.177929
H        1.367906       3.936153      -0.798602
H        2.268380       1.584532      -1.946598
H        1.119728       1.653705      -3.317114
H        0.626061      -1.186173      -0.076700
H        0.969964      -0.627897      -2.535726
H       -0.427307       0.173585      -1.812971
12

C        1.118611       1.452683      -2.350710
C        0.683076       0.102260      -1.879732
C        1.041804      -0.397738      -0.514007
O        0.337852       2.472665      -1.529944
O        0.975349       3.682935      -1.837858
O        1.790312       0.112001       0.263726
H        1.206301       4.039480      -0.941015
H        2.105254       1.815489      -2.007859
H        1.048026       1.611746      -3.415428
H        0.527330      -1.367365      -0.270172
H        0.882443      -0.676831      -2.617644
H       -0.449281       0.415698      -1.555988
12

C        1.110516       1.364571      -2.493107
C        0.698825       0.059927      -1.975602
C        0.960147      -0.419741      -0.590553
O        0.240999       2.486099      -1.462577
O        0.907386       3.669657      -1.849184
O        1.611569       0.115738       0.264351
H        1.036149       4.133484      -0.997968
H        1.969557       1.920627      -2.104559
H        1.040418       1.532139      -3.558739
H        0.466869      -1.401098      -0.393476
H        0.762601      -0.743156      -2.703112
H       -0.360611       0.752540      -1.387682
12

C        1.186347       1.320776      -2.561144
C        0.779098       0.098057      -2.013613
C        0.958905      -0.329680      -0.599910
O        0.153262       2.569114      -1.234584
O        0.858475       3.674946      -1.712007
O        1.542166       0.216172       0.299466
H        0.945753       4.230756      -0.913772
H        1.944643       1.991033      -2.140115
H        1.149891       1.476420      -3.632630
H        0.445087      -1.300041      -0.414337
H        0.722491      -0.804518      -2.645556
H       -0.249832       1.127098      -1.156403
12

C        1.098995       1.331135      -2.592811
C        0.716114       0.152564      -2.045846
C        0.820620      -0.213909      -0.617733
O       -0.093658       2.737139      -0.998068
O        0.728644       3.700305      -1.579585
O        1.336257       0.432744       0.260256
H        0.826737       4.359612      -0.871831
H        1.719654       2.085263      -2.136486
H        1.127091       1.466834      -3.668814
H        0.351074      -1.184214      -0.394839
H        0.681944      -0.747361      -2.657054
H       -0.361044       1.580418      -0.930512
12

C        1.136668       1.274893      -2.594663
C        0.812579       0.115614      -2.051189
C        0.820132      -0.224622      -0.641626
O       -0.235437       2.920902      -0.773937
O        0.777512       3.627336      -1.461754
O        1.256755       0.493362       0.237122
H        0.942075       4.399935      -0.899779
H        1.584975       2.122473      -2.140577
H        1.230490       1.375751      -3.659156
H        0.423923      -1.220523      -0.422043
H        0.851704      -0.796961      -2.620566
H       -0.478416       1.860677      -0.610357
12

C        1.303310       1.117054      -2.689902
C        0.991563      -0.034127      -2.118714
C        0.862899      -0.291548      -0.680927
O       -0.104468       3.017702      -0.470749
O        0.777447       3.648368      -1.346494
O        1.037425       0.517112       0.205810
H        0.920739       4.502142      -0.924911
H        1.570846       2.037800      -2.212151
H        1.430518       1.174735      -3.759243
H        0.550877      -1.312614      -0.444968
H        1.003493      -0.957549      -2.671809
H       -0.115733       1.971313      -0.412562
12

C        1.477161       0.937892      -2.791140
C        1.228442      -0.235158      -2.201408
C        0.971883      -0.395667      -0.750864
O        0.035529       3.098003      -0.242439
O        0.918727       3.524195      -1.235934
O        0.900765       0.488364       0.084844
H        1.056959       4.445543      -0.985950
H        1.532199       1.877943      -2.256206
H        1.658445       0.994948      -3.855097
H        0.801555      -1.445063      -0.449214
H        1.282314      -1.170291      -2.744942
H        0.161797       2.107696      -0.243280
12

C        1.482041       0.751663      -2.859077
C        1.304275      -0.416749      -2.246102
C        0.946707      -0.515427      -0.830926
O        0.138112       3.174720      -0.162854
O        1.031643       3.581604      -1.192812
O        0.707880       0.411297      -0.093225
H        0.991150       4.542943      -1.124295
H        1.370420       1.685750      -2.331534
H        1.749395       0.811045      -3.900718
H        0.904740      -1.551950      -0.448195
H        1.425416      -1.355052      -2.769540
H        0.337231       2.219875      -0.076312
[GEOCONV]
energy
0.0
20.5719894766
72.2412976849
133.830291556
93.4506450702
66.7705721759
39.5148255919
27.098164033
24.2267576952
max-force
8.17214553223e-05
0.0108935625309
0.00641453946283
0.00743508269569
0.00709081906982
0.00827718652495
0.0117404873136
0.000455376556895
5.57176455987e-05
max-step
1000.0
1000.0
1000.0
1000.0
1000.0
1000.0
1000.0
1000.0
1000.0
