[Molden Format]
[Geometries] (XYZ)
12

C        1.212921       1.498709      -2.235128
C        0.663504       0.138320      -1.820697
C        1.143751      -0.284155      -0.458059
O        0.439523       2.455666      -1.537453
O        1.003137       3.742226      -1.674471
O        2.001442       0.255049       0.177929
H        1.367906       3.936153      -0.798602
H        2.268380       1.584532      -1.946598
H        1.119728       1.653705      -3.317114
H        0.626061      -1.186173      -0.076700
H        0.969964      -0.627897      -2.535726
H       -0.427307       0.173585      -1.812971
12

C        1.192158       1.493086      -2.298984
C        0.759837       0.144826      -1.823988
C        1.111627      -0.354398      -0.458157
O        0.411219       2.514938      -1.466548
O        1.049521       3.725578      -1.779020
O        1.848983       0.160186       0.325754
H        1.271825       4.089072      -0.886141
H        2.169218       1.875198      -1.952236
H        1.122559       1.653100      -3.363527
H        0.602305      -1.326102      -0.219885
H        0.946295      -0.634803      -2.562395
H       -0.356054       0.486889      -1.478286
12

C        1.235429       1.425688      -2.396154
C        0.807250       0.109757      -1.873919
C        1.078831      -0.346275      -0.481826
O        0.410675       2.484549      -1.373827
O        1.040923       3.706463      -1.717917
O        1.704690       0.217841       0.375172
H        1.127883       4.153785      -0.866054
H        2.092422       1.990267      -2.004475
H        1.155701       1.606250      -3.463437
H        0.605876      -1.327573      -0.276839
H        0.814999      -0.693052      -2.592696
H       -0.112919       0.836588      -1.301612
12

C        1.315464       1.254022      -2.534408
C        0.864934       0.075781      -1.965612
C        1.063244      -0.279675      -0.548619
O        0.302490       2.469463      -1.198165
O        0.941845       3.692340      -1.539808
O        1.695136       0.314381       0.295420
H        0.953213       4.161941      -0.696359
H        2.086616       1.899007      -2.121402
H        1.260272       1.414181      -3.607553
H        0.524577      -1.218679      -0.289773
H        0.711584      -0.828931      -2.549786
H        0.014789       1.219673      -1.216417
12

C        1.387517       1.176465      -2.546622
C        0.929435       0.054342      -2.015195
C        1.105328      -0.284388      -0.594267
O        0.050802       2.534906      -0.969008
O        0.891578       3.525386      -1.547397
O        1.741329       0.334988       0.203677
H        1.005768       4.120264      -0.799057
H        2.086477       1.833479      -2.058631
H        1.356338       1.356085      -3.610300
H        0.562214      -1.207000      -0.300064
H        0.751051      -0.828593      -2.610581
H       -0.095680       1.562073      -1.057531
12

C        1.419109       1.076331      -2.634575
C        1.029693      -0.058950      -2.085648
C        1.099163      -0.345773      -0.648591
O       -0.082779       2.788646      -0.788898
O        0.915729       3.500297      -1.489855
O        1.621992       0.343513       0.177741
H        1.112381       4.206933      -0.862238
H        1.913718       1.871433      -2.113883
H        1.444463       1.198967      -3.705972
H        0.610206      -1.299408      -0.362790
H        0.916858      -0.956493      -2.679541
H       -0.168499       1.801931      -0.824694
12

C        1.451570       1.003020      -2.744639
C        1.136000      -0.147492      -2.168122
C        1.025861      -0.400726      -0.721849
O        0.062829       2.882495      -0.538360
O        0.943139       3.474298      -1.436730
O        1.231320       0.401754       0.166221
H        1.115864       4.327048      -1.024120
H        1.740330       1.921057      -2.267061
H        1.563938       1.059749      -3.816795
H        0.695271      -1.416399      -0.481444
H        1.136136      -1.070898      -2.722709
H        0.046554       1.861555      -0.491476
12

C        1.498266       0.868780      -2.833016
C        1.245139      -0.293492      -2.235709
C        1.003392      -0.443018      -0.794551
O        0.081711       3.039253      -0.288224
O        0.960538       3.486103      -1.300358
O        0.953445       0.445853       0.021674
H        1.102049       4.406142      -1.042789
H        1.567518       1.808173      -2.307774
H        1.667569       0.915751      -3.898112
H        0.821863      -1.487093      -0.482454
H        1.284432      -1.232545      -2.771623
H        0.202976       2.065502      -0.295946
12

C        1.482041       0.751663      -2.859077
C        1.304275      -0.416749      -2.246102
C        0.946707      -0.515427      -0.830926
O        0.138112       3.174720      -0.162854
O        1.031643       3.581604      -1.192812
O        0.707880       0.411297      -0.093225
H        0.991150       4.542943      -1.124295
H        1.370420       1.685750      -2.331534
H        1.749395       0.811045      -3.900718
H        0.904740      -1.551950      -0.448195
H        1.425416      -1.355052      -2.769540
H        0.337231       2.219875      -0.076312
[GEOCONV]
energy
0.0
22.6987668931
65.4433745661
120.696357577
66.3713115862
44.1688873174
38.3675121445
26.4452766453
24.2267576952
max-force
8.17214553223e-05
0.0096591716952
0.00845574258892
0.00499154361432
0.00420305794816
0.00493110286985
0.00640938002682
0.00147088619581
5.57176455987e-05
max-step
1000.0
1000.0
1000.0
1000.0
1000.0
1000.0
1000.0
1000.0
1000.0
