[Molden Format]
[Geometries] (XYZ)
12

C        1.395967       1.481101      -1.789065
C        0.455751       0.532584      -1.055518
C        1.056293      -0.827169      -0.853559
O        0.715889       2.710883      -1.896219
O        1.563566       3.643630      -2.566939
O        2.146593      -1.171058      -1.206339
H        0.992249       4.419232      -2.639366
H        2.329696       1.610902      -1.228669
H        1.639453       1.092957      -2.785621
H        0.376258      -1.523384      -0.323395
H       -0.477980       0.422972      -1.612906
H        0.195264       0.946840      -0.078193
12

C        1.368193       1.507394      -1.657222
C        0.439527       0.548406      -0.962139
C        1.033682      -0.820976      -0.797158
O        0.698542       2.708822      -1.835206
O        1.575134       3.649911      -2.535337
O        2.164259      -1.133654      -1.040489
H        0.990111       4.374231      -2.685061
H        2.354255       1.664331      -1.213289
H        1.531552       1.319262      -2.822942
H        0.300477      -1.561419      -0.412273
H       -0.496183       0.470322      -1.534988
H        0.185055       0.926396       0.024615
12

C        1.149411       1.413441      -1.770730
C        0.258519       0.442273      -1.057736
C        0.946460      -0.894559      -0.915630
O        0.428809       2.600634      -2.050256
O        1.600404       3.399347      -2.602018
O        2.109811      -1.094715      -1.111808
H        1.104772       4.175900      -2.854058
H        2.144166       1.589639      -1.390338
H        1.370766       1.616706      -3.252208
H        0.270871      -1.711076      -0.619357
H       -0.693131       0.320766      -1.569156
H        0.050049       0.833132      -0.048960
12

C        1.052644       1.349853      -1.741598
C        0.206490       0.317848      -1.041141
C        0.915615      -1.011068      -0.936605
O        0.378208       2.414999      -2.117403
O        1.687725       3.427559      -2.763830
O        2.092358      -1.178936      -1.091351
H        1.202049       4.182573      -3.100243
H        2.060898       1.528983      -1.389617
H        1.275990       1.928189      -3.349068
H        0.240845      -1.858655      -0.728744
H       -0.753944       0.187018      -1.536230
H        0.021222       0.687927      -0.021526
12

C        1.063453       1.356576      -1.642340
C        0.258980       0.257141      -0.961977
C        0.968897      -1.065740      -0.892011
O        0.399848       2.291417      -1.983758
O        1.813952       3.462511      -2.924240
O        2.149866      -1.222100      -1.022261
H        1.344310       4.200923      -3.270346
H        2.084069       1.525852      -1.290887
H        1.420284       2.399225      -3.441810
H        0.289730      -1.922533      -0.729106
H       -0.708845       0.135003      -1.449759
H        0.088084       0.591602       0.066446
12

C        0.992920       1.402562      -1.441045
C        0.188259       0.328540      -0.746009
C        1.016946      -0.963919      -0.789988
O        0.384047       2.358661      -1.867657
O        1.991882       3.600819      -3.025159
O        2.211368      -0.950605      -0.848711
H        1.586537       4.380684      -3.416126
H        2.044735       1.488848      -1.162249
H        1.343084       2.854591      -3.165520
H        0.451813      -1.900745      -0.752588
H       -0.795775       0.230025      -1.200796
H        0.042860       0.577679       0.294184
12

C        1.026691       1.322989      -1.393751
C        0.226360       0.294074      -0.681692
C        1.043178      -0.995600      -0.739746
O        0.474625       2.201883      -1.914733
O        2.088725       3.714105      -3.088264
O        2.258553      -0.943844      -0.714507
H        1.637892       4.452223      -3.527571
H        2.084323       1.357211      -1.147807
H        1.389767       3.023334      -3.002966
H        0.485142      -1.941084      -0.788237
H       -0.774654       0.209369      -1.113758
H        0.116549       0.551234       0.353257
12

C        1.076531       1.281692      -1.414733
C        0.288853       0.247558      -0.660269
C        1.033616      -1.077009      -0.665235
O        0.535659       2.052545      -2.149289
O        2.092087       4.042136      -3.119315
O        2.212405      -1.201932      -0.542030
H        1.588334       4.635658      -3.716279
H        2.142759       1.345442      -1.150071
H        1.491038       3.253179      -2.969487
H        0.375645      -1.953184      -0.806713
H       -0.716652       0.143928      -1.064970
H        0.220297       0.596099       0.380543
12

C        1.055071       1.210059      -1.441576
C        0.321499       0.165052      -0.643364
C        1.031043      -1.166259      -0.738264
O        0.523273       1.981005      -2.189187
O        2.065165       4.288346      -3.112426
O        2.202339      -1.322537      -0.561105
H        1.511185       4.878869      -3.626598
H        2.145735       1.201192      -1.283949
H        1.516540       3.526163      -2.888596
H        0.365622      -2.009006      -0.999162
H       -0.721029       0.100189      -0.953196
H        0.372559       0.486417       0.401632
[GEOCONV]
energy
0.0
9.59760865031
60.8889715734
126.666289965
32.1812109134
-11.6414955982
-17.2151120283
-27.3017627887
-29.9111409932
max-force
4.2441240907e-05
0.00732128186118
0.00917089887818
0.0127789318034
0.00966944713902
0.0052901696618
0.0149722946578
0.00637203408366
8.47036265012e-05
max-step
1000.0
1000.0
1000.0
1000.0
1000.0
1000.0
1000.0
1000.0
1000.0
