[Molden Format]
[Geometries] (XYZ)
12

C        1.395967       1.481101      -1.789065
C        0.455751       0.532584      -1.055518
C        1.056293      -0.827169      -0.853559
O        0.715889       2.710883      -1.896219
O        1.563566       3.643630      -2.566939
O        2.146593      -1.171058      -1.206339
H        0.992249       4.419232      -2.639366
H        2.329696       1.610902      -1.228669
H        1.639453       1.092957      -2.785621
H        0.376258      -1.523384      -0.323395
H       -0.477980       0.422972      -1.612906
H        0.195264       0.946840      -0.078193
12

C        1.351945       1.451663      -1.820667
C        0.438649       0.499738      -1.082350
C        1.056370      -0.854075      -0.876008
O        0.684127       2.702023      -1.903653
O        1.595467       3.584351      -2.554746
O        2.207517      -1.134132      -1.047530
H        1.038825       4.340903      -2.768193
H        2.345953       1.582440      -1.385282
H        1.499102       1.236185      -2.895467
H        0.321676      -1.616965      -0.548793
H       -0.505525       0.389209      -1.618083
H        0.211430       0.916117      -0.095397
12

C        1.285821       1.462866      -1.699122
C        0.399658       0.478558      -1.000776
C        1.084792      -0.857636      -0.866259
O        0.568740       2.687432      -1.982124
O        1.709934       3.415506      -2.567290
O        2.246589      -1.064808      -1.067455
H        1.238658       4.199514      -2.840102
H        2.286638       1.645381      -1.335432
H        1.489267       1.611892      -3.132511
H        0.395242      -1.684363      -0.615635
H       -0.550106       0.358539      -1.524995
H        0.184352       0.854959       0.007503
12

C        1.200936       1.541100      -1.481269
C        0.375406       0.417093      -0.925926
C        1.091042      -0.909569      -0.941996
O        0.544251       2.680613      -1.749224
O        1.792887       3.339580      -2.900196
O        2.270552      -1.058902      -1.060420
H        1.391115       4.107922      -3.309282
H        2.222256       1.693030      -1.132275
H        1.359638       1.866143      -3.000348
H        0.403016      -1.780534      -0.948752
H       -0.578731       0.333739      -1.455600
H        0.161164       0.657660       0.119311
12

C        1.154708       1.528655      -1.445118
C        0.357454       0.379933      -0.855883
C        1.079948      -0.946125      -0.886726
O        0.485361       2.515105      -1.719334
O        1.908081       3.455308      -2.997377
O        2.256970      -1.084840      -1.059783
H        1.433075       4.186310      -3.373814
H        2.185011       1.666720      -1.094790
H        1.540848       2.454461      -3.271865
H        0.406305      -1.822234      -0.789734
H       -0.605508       0.284230      -1.361409
H        0.172075       0.637634       0.188432
12

C        1.050039       1.421595      -1.406813
C        0.301638       0.273627      -0.760892
C        1.076049      -1.020873      -0.801440
O        0.427960       2.379512      -1.780785
O        2.074837       3.696574      -3.172380
O        2.263067      -1.100843      -0.939726
H        1.615796       4.446075      -3.540184
H        2.123366       1.466427      -1.184886
H        1.548560       2.921649      -3.355543
H        0.447463      -1.926689      -0.697938
H       -0.687112       0.165114      -1.208967
H        0.169765       0.533909       0.291075
12

C        1.050739       1.338571      -1.436962
C        0.279906       0.271557      -0.718407
C        1.046234      -1.028304      -0.758422
O        0.475047       2.240972      -1.918130
O        2.088673       3.742920      -3.203104
O        2.254354      -1.069760      -0.774350
H        1.661888       4.506952      -3.584613
H        2.121360       1.371588      -1.227132
H        1.382597       3.074582      -3.154721
H        0.427431      -1.943563      -0.751348
H       -0.726458       0.192598      -1.137499
H        0.193272       0.539979       0.322748
12

C        0.999445       1.282295      -1.408245
C        0.287877       0.207643      -0.631397
C        1.044534      -1.099622      -0.669264
O        0.441164       2.073793      -2.114554
O        2.163737       4.060367      -3.247243
O        2.234897      -1.201113      -0.643249
H        1.672391       4.706022      -3.756567
H        2.090158       1.291898      -1.255844
H        1.558413       3.328759      -3.078092
H        0.387890      -1.987864      -0.721590
H       -0.739811       0.092883      -0.977006
H        0.273184       0.536486       0.412921
12

C        1.055071       1.210059      -1.441576
C        0.321499       0.165052      -0.643364
C        1.031043      -1.166259      -0.738264
O        0.523273       1.981005      -2.189187
O        2.065165       4.288346      -3.112426
O        2.202339      -1.322537      -0.561105
H        1.511185       4.878869      -3.626598
H        2.145735       1.201192      -1.283949
H        1.516540       3.526163      -2.888596
H        0.365622      -2.009006      -0.999162
H       -0.721029       0.100189      -0.953196
H        0.372559       0.486417       0.401632
[GEOCONV]
energy
0.0
2.84331895725
50.9515403571
92.0750594832
10.0396875999
-20.8657403724
-21.6377747785
-29.6042045358
-29.9111409932
max-force
4.2441240907e-05
0.000968982187293
0.0110193585159
0.00499373023493
0.00753167124601
0.0021472512613
0.00849937909778
0.000274053530765
8.47036265012e-05
max-step
1000.0
1000.0
1000.0
1000.0
1000.0
1000.0
1000.0
1000.0
1000.0
