[Molden Format]
[Geometries] (XYZ)
12

C        1.407567       1.487206      -2.163883
C        1.160917       0.687533      -0.879442
C        1.161648      -0.790457      -1.119750
O        1.288136       2.868641      -1.971814
O       -0.080064       3.191305      -1.705190
O        1.683016      -1.607144      -0.416441
H       -0.053986       4.155570      -1.662629
H        2.438755       1.374503      -2.507583
H        0.719406       1.156135      -2.952855
H        0.605161      -1.089860      -2.030829
H        0.165229       0.957680      -0.511600
H        1.893104       0.948588      -0.113865
12

C        1.330233       1.449254      -2.224274
C        1.087652       0.672231      -0.926074
C        1.213472      -0.809089      -1.114833
O        1.475183       2.780276      -1.953385
O       -0.001946       3.129146      -1.742929
O        1.757859      -1.562538      -0.359649
H        0.105807       4.068024      -1.532704
H        2.398349       1.447957      -2.756804
H        0.721247       1.121171      -3.074533
H        0.731323      -1.177132      -2.042846
H        0.061084       0.879573      -0.612151
H        1.766308       1.011983      -0.142738
12

C        1.244150       1.432036      -2.257810
C        1.009017       0.660318      -0.957808
C        1.232067      -0.815697      -1.116739
O        1.670635       2.659697      -1.966741
O        0.028960       3.092673      -1.793925
O        1.793434      -1.522031      -0.329741
H        0.204580       3.983682      -1.460593
H        2.362782       1.593651      -2.988735
H        0.696088       1.107299      -3.145185
H        0.807137      -1.226829      -2.054519
H       -0.036409       0.810262      -0.678348
H        1.644060       1.052952      -0.163442
12

C        1.201615       1.476408      -2.238359
C        0.960401       0.698843      -0.951100
C        1.210862      -0.775870      -1.112284
O        1.910145       2.572321      -2.031090
O        0.027758       2.923200      -1.830119
O        1.768261      -1.476303      -0.318140
H        0.221016       3.774752      -1.438798
H        2.364847       1.793366      -3.112561
H        0.633962       1.177470      -3.115505
H        0.793819      -1.193339      -2.051872
H       -0.091278       0.826819      -0.679921
H        1.581184       1.096590      -0.147958
12

C        1.162784       1.537081      -2.181404
C        0.921561       0.747541      -0.906040
C        1.203343      -0.721991      -1.071010
O        2.110463       2.513814      -2.123691
O        0.075315       2.751305      -1.825838
O        1.760159      -1.417417      -0.271602
H        0.302064       3.561949      -1.380946
H        2.367350       2.023216      -3.123444
H        0.582582       1.252341      -3.050494
H        0.805374      -1.143012      -2.017776
H       -0.133985       0.852069      -0.647661
H        1.528425       1.158350      -0.098010
12

C        1.074739       1.562501      -2.147274
C        0.867684       0.758098      -0.870953
C        1.238502      -0.692527      -1.042567
O        2.197220       2.354419      -2.114876
O        0.137596       2.793067      -1.851027
O        1.821579      -1.356893      -0.237482
H        0.453934       3.528357      -1.326167
H        2.321909       2.177471      -3.132265
H        0.552455       1.248501      -3.044012
H        0.887500      -1.120670      -2.002174
H       -0.194256       0.802235      -0.616207
H        1.446845       1.199230      -0.060276
12

C        1.010380       1.605221      -2.096534
C        0.829214       0.779758      -0.825523
C        1.260695      -0.648709      -1.013470
O        2.267376       2.187344      -2.135748
O        0.175418       2.816345      -1.873972
O        1.875707      -1.297277      -0.218176
H        0.532799       3.473807      -1.268554
H        2.336593       2.302765      -3.100226
H        0.516194       1.253609      -3.002725
H        0.936755      -1.081306      -1.980889
H       -0.233570       0.778822      -0.570512
H        1.392043       1.232241      -0.008673
12

C        0.930642       1.639097      -2.078646
C        0.766506       0.787488      -0.816109
C        1.266392      -0.614891      -1.019954
O        2.263426       1.999444      -2.204249
O        0.195380       2.859964      -1.906738
O        1.899051      -1.245510      -0.224815
H        0.574473       3.426862      -1.225306
H        2.339682       2.365079      -3.090045
H        0.446249       1.228873      -2.972251
H        0.979864      -1.045905      -1.999885
H       -0.297999       0.736555      -0.574114
H        1.301210       1.250167       0.014574
12

C        0.845065       1.684773      -2.042704
C        0.723686       0.794267      -0.799797
C        1.254065      -0.587913      -1.056578
O        2.208016       1.801441      -2.331449
O        0.249421       2.931772      -1.862668
O        1.912715      -1.225822      -0.289675
H        0.671637       3.378036      -1.116958
H        2.326912       2.370853      -3.100891
H        0.299788       1.232313      -2.886994
H        0.964076      -0.994020      -2.045203
H       -0.333841       0.711906      -0.537223
H        1.267351       1.242094       0.034260
[GEOCONV]
energy
0.0
17.5821335093
70.70171827
120.049933719
27.2140099939
-11.0278837587
-37.203470832
-48.5896567773
-51.898207669
max-force
3.48550257561e-05
0.00665192515133
0.00476105789567
0.012688280294
0.0106338003826
0.00900179136936
0.00423218507283
0.0019887865064
5.20417331334e-05
max-step
1000.0
1000.0
1000.0
1000.0
1000.0
1000.0
1000.0
1000.0
1000.0
