[Molden Format]
[Geometries] (XYZ)
12

C        1.407567       1.487206      -2.163883
C        1.160917       0.687533      -0.879442
C        1.161648      -0.790457      -1.119750
O        1.288136       2.868641      -1.971814
O       -0.080064       3.191305      -1.705190
O        1.683016      -1.607144      -0.416441
H       -0.053986       4.155570      -1.662629
H        2.438755       1.374503      -2.507583
H        0.719406       1.156135      -2.952855
H        0.605161      -1.089860      -2.030829
H        0.165229       0.957680      -0.511600
H        1.893104       0.948588      -0.113865
12

C        1.299350       1.456904      -2.217944
C        1.060490       0.678845      -0.922056
C        1.199345      -0.801067      -1.109544
O        1.428381       2.799305      -1.939325
O       -0.012667       3.160427      -1.747519
O        1.747091      -1.549782      -0.352306
H        0.102059       4.097369      -1.527865
H        2.345497       1.440646      -2.739063
H        0.687816       1.136895      -3.069895
H        0.725305      -1.173052      -2.040230
H        0.031145       0.878958      -0.612303
H        1.733683       1.024524      -0.136565
12

C        1.198764       1.449509      -2.225628
C        0.976189       0.667779      -0.937201
C        1.222751      -0.804907      -1.099175
O        1.610193       2.690717      -1.945947
O        0.014293       3.163297      -1.796130
O        1.790872      -1.504013      -0.311058
H        0.201689       4.044615      -1.452095
H        2.289305       1.581946      -2.937910
H        0.644717       1.138794      -3.111426
H        0.806034      -1.221333      -2.038538
H       -0.073390       0.800523      -0.662785
H        1.600600       1.068848      -0.138788
12

C        1.185302       1.499259      -2.203893
C        0.951771       0.721980      -0.925118
C        1.187404      -0.756922      -1.089608
O        1.864243       2.595286      -2.016098
O       -0.028326       3.001127      -1.790868
O        1.744699      -1.455505      -0.295851
H        0.160061       3.852658      -1.402078
H        2.370173       1.776403      -3.079565
H        0.614518       1.191204      -3.074864
H        0.768338      -1.173363      -2.027716
H       -0.097851       0.857192      -0.650597
H        1.575428       1.117958      -0.122710
12

C        1.140113       1.566409      -2.168545
C        0.906545       0.774577      -0.888348
C        1.146181      -0.701928      -1.059595
O        2.046469       2.573252      -2.142720
O        0.020169       2.752697      -1.814299
O        1.710798      -1.410425      -0.277465
H        0.233580       3.572824      -1.373596
H        2.359045       2.042352      -3.069910
H        0.544626       1.279932      -3.028280
H        0.724033      -1.110921      -2.001062
H       -0.141520       0.904438      -0.612701
H        1.535938       1.168191      -0.088740
12

C        1.031809       1.587324      -2.162883
C        0.821361       0.783429      -0.883630
C        1.177086      -0.672862      -1.048254
O        2.156185       2.405308      -2.168304
O        0.084843       2.753870      -1.843882
O        1.752504      -1.342291      -0.241168
H        0.398283       3.484296      -1.311229
H        2.286029       2.194319      -3.131823
H        0.483270       1.292627      -3.049953
H        0.811848      -1.102105      -2.002515
H       -0.238995       0.837875      -0.629698
H        1.406047       1.223953      -0.076141
12

C        0.953549       1.619578      -2.121104
C        0.781128       0.788536      -0.850799
C        1.195543      -0.644913      -1.046065
O        2.221070       2.220554      -2.179608
O        0.103944       2.792240      -1.897687
O        1.814516      -1.302383      -0.261475
H        0.465845       3.452986      -1.302102
H        2.303846       2.292631      -3.122063
H        0.460529       1.263106      -3.022646
H        0.852786      -1.072152      -2.009989
H       -0.278017       0.797222      -0.583394
H        1.359100       1.235732      -0.041705
12

C        0.898498       1.644937      -2.092202
C        0.740538       0.790351      -0.831531
C        1.230202      -0.615014      -1.042254
O        2.237648       2.012922      -2.225374
O        0.156834       2.852335      -1.920441
O        1.866407      -1.251462      -0.254709
H        0.541408       3.423100      -1.246682
H        2.314997       2.356676      -3.111477
H        0.415081       1.231666      -2.983286
H        0.932066      -1.042287      -2.020571
H       -0.322080       0.745058      -0.580777
H        1.285331       1.249132      -0.005372
12

C        0.845065       1.684773      -2.042704
C        0.723686       0.794267      -0.799797
C        1.254065      -0.587913      -1.056578
O        2.208016       1.801441      -2.331449
O        0.249421       2.931772      -1.862668
O        1.912715      -1.225822      -0.289675
H        0.671637       3.378036      -1.116958
H        2.326912       2.370853      -3.100891
H        0.299788       1.232313      -2.886994
H        0.964076      -0.994020      -2.045203
H       -0.333841       0.711906      -0.537223
H        1.267351       1.242094       0.034260
[GEOCONV]
energy
0.0
13.4584553538
61.4411913875
117.745036678
25.9035941335
-15.1044551734
-38.5806755565
-48.7811662493
-51.898207669
max-force
3.48550257561e-05
0.00530030720334
0.00375846027495
0.00498173235457
0.00585328281801
0.00640029000217
0.00306356169504
0.00174882698494
5.20417331334e-05
max-step
1000.0
1000.0
1000.0
1000.0
1000.0
1000.0
1000.0
1000.0
1000.0
