56
 energy: -94.155257053126 gnorm: 0.000156866377 xtb: 6.4.0 (d4b70c2)
c         0.96554716999974   -2.74177403999975    0.17727162000002
c         1.16832473000018   -4.23932533000001   -0.00732709000009
c        -0.46061281000015   -2.35403843000006   -0.23247500999993
o        -0.76651547000013   -2.21196530999986   -1.41317611000005
o         0.78974222000022   -0.08232139999975   -0.23277365000020
o         1.13933489000016   -1.67997875000005   -3.47719251999990
n         1.87833775000024   -1.99667252000018   -0.67016258000001
c         1.62665881000004   -0.68879063999998   -0.88332230000005
c         2.37922721999985   -0.08253094999992   -2.04904987999982
c         1.46157352000017   -0.33046621999991   -3.28822829999975
n         2.66627241999974    1.31187143000019   -1.80260605999978
n        -1.33469471000015   -2.24546139999986    0.76859922000021
c        -2.73149367999982   -1.90189817000006    0.56162553000010
c        -3.56891233999997   -2.45022377999994    1.70579585000026
c        -2.90516107999983   -0.36998390999976    0.44567554999984
o        -3.52031218999983    0.28546418999994    1.25867307000022
n        -2.33310336000025    0.14155747000007   -0.65984389999975
o        -0.12435088000003    2.47852208999980   -1.42526253999986
o        -0.74487029000024    2.09218530999977    0.71258858999994
c        -2.31928166999980    1.56416543000019   -0.93812610999987
c        -0.92534579000004    2.10978061999980   -0.61017734999978
c        -2.68748764000025    1.83544721999977   -2.38973752999977
h         1.13595318000016   -2.44910077999997    1.21971923000010
h         0.95804688999974   -4.51991736000002   -1.03782475000005
h         0.49839099000004   -4.78977758999985    0.64786629000004
h         2.19326217999990   -4.50971496000007    0.23480977000026
h         0.44076954000011   -1.93833372999997   -2.84620459000008
h         2.40667669000014   -2.50954704999985   -1.36001871000015
h         3.32503996999977   -0.61673320999980   -2.19997117999999
h         1.99583327000015   -0.00862597000007   -4.18793456000020
h         0.56381566999979    0.29166647000004   -3.17294626000024
h         1.81710516000007    1.78003880000006   -1.49465940000000
h         2.96744853000006    1.76219508000006   -2.66061170000012
h        -0.99018959999988   -2.21185341000025    1.71986703000014
h        -3.03182981000008   -2.34691827000014   -0.39498053999977
h        -4.61736501999986   -2.22765621999982    1.53113047000019
h        -3.27527027000016   -1.97537407000008    2.63888434999983
h        -3.44003035000001   -3.52618875000004    1.79034292000024
h        -1.76995086999990   -0.46097822999995   -1.24883763999995
h        -3.03797923000001    2.01625060999982   -0.24373634000014
h        -2.70025139999993    2.90535559000015   -2.57711561000004
h        -3.66832728000007    1.42247481000020   -2.60820543000005
h        -1.95399454999982    1.38066160999975   -3.05122923999977
c         0.51722359000018    2.23847331999974    1.26055915999984
c         0.94182573999997    1.24207740000020    2.15356321000010
c         1.35182380000023    3.29404990999991    0.93955873000014
c         2.21983145999983    1.32383645000026    2.69986159999995
c         3.04958205999986    2.38213519999983    2.38473633000010
c         2.61435277999983    3.36264490999989    1.50796419000002
h         1.02288834000024    4.04841453999992    0.24236526999977
h         4.03869646000010    2.44036060000025    2.81264321000020
h         3.26398492000011    4.18573378000004    1.25238262000009
h         2.53920017000005    0.54118575999993    3.37183802000003
c         0.06254597999988    0.10514940999985    2.41603171999990
o         0.40688003000009   -0.97371238999989    2.84721420000026
h        -0.99395227999993    0.30077797999989    2.17213985000023
56
 energy: -94.094021932406 gnorm: 0.104268892921 xtb: 6.4.0 (d4b70c2)
c         1.04072843301115   -2.56370168357515    0.33043529707800
c         1.40674876561247   -4.04048496076467    0.27570353712974
c        -0.39911803965693   -2.42916912239584   -0.18035491225282
o        -0.58844351144413   -2.50790505416087   -1.39104596690121
o         0.50457706802066    0.01088816163394   -0.46024461706045
o         1.26570694341396   -2.01164312562560   -3.37842752968269
n         1.90124615226975   -1.73876859859798   -0.49751537256870
c         1.46260606666225   -0.55255369036326   -0.96636869812909
c         2.23404908389966   -0.08144473654372   -2.18117849614914
c         1.33818130315856   -0.61367153727953   -3.34448366769848
n         2.39166443171187    1.35043692899380   -2.29235313909554
n        -1.33782953511619   -2.30817053531006    0.75886702413485
c        -2.70327338029338   -1.90312324229558    0.47004010944281
c        -3.64153062120892   -2.59317921809294    1.44705230419144
c        -2.89716436788080   -0.36933829009052    0.45342341887082
o        -3.74363954185076    0.12615125542956    1.16543323972797
n        -2.17728517109639    0.32422670312593   -0.44759792185474
o        -0.12250702962856    2.81109433806963   -1.21138970338957
o        -0.79999146259788    2.33790858086263    0.90063423717303
c        -2.23997788853170    1.71635328183075   -0.84697078724494
c        -0.92588286392942    2.38397345945253   -0.42775583022422
c        -2.34877349938751    1.88711904447521   -2.35539637575392
h         1.23225455063465   -2.26780194610937    1.36829557856953
h         2.04859224075237   -4.22977864934983   -0.58282947858327
h         0.49480931807196   -4.59046632427036    0.05896817526883
h         1.94367726484009   -4.45522820432684    1.12537018832958
h         0.61455800925724   -2.40862741149537   -2.76908759651597
h         2.64665900074983   -2.13067073058605   -1.05326370327606
h         3.25543662194263   -0.47338122477167   -2.25775747423357
h         1.81913190728165   -0.23588245078787   -4.25247480435039
h         0.32240770007461   -0.19870991349746   -3.39263996222888
h         1.59482742549170    1.78658663204806   -1.83418167598978
h         2.50924498833668    1.59933198503621   -3.26903025126229
h        -0.90402650988303   -2.08066239121351    1.64474438816239
h        -2.82043686289064   -2.34763517428076   -0.52596276691014
h        -4.55519959591399   -2.70164644154975    0.87021506132253
h        -3.75439414151266   -1.83508313514579    2.21835912953469
h        -3.23492243938901   -3.53938875908030    1.79463925200843
h        -1.59117926245927   -0.23738015320704   -1.05437732166833
h        -3.06055957356006    2.12503254332164   -0.24471558839272
h        -2.62970827841750    2.92285534959141   -2.52363233860464
h        -3.09774515674272    1.22626405952321   -2.78275218140328
h        -1.42369622630301    1.71139623027340   -2.89924091591223
c         0.50630896256967    2.29787582629442    1.35508948750042
c         0.94098802622255    1.14569781383784    2.02895011600546
c         1.40863943283648    3.31149297184304    1.08635011413343
c         2.29244037514407    1.06029177227380    2.35253560340946
c         3.19582806656447    2.09395399298257    2.20015648211615
c         2.69643616901709    3.23523711533277    1.59382833514159
h         0.99259878334857    4.17896752663599    0.59876281624078
h         4.17378994192574    2.06940188866396    2.65603978588207
h         3.35782711270876    4.03947946932839    1.30997021999500
h         2.47393383089179    0.12329466996219    2.85769635274993
c        -0.00977531900983    0.12345397425918    2.45987306463653
o         0.25919799174825   -0.99128990165431    2.85157007410240
h        -1.02452563022067    0.52765824017316    2.31550163952508
56
 energy: -94.087854075715 gnorm: 0.104363477819 xtb: 6.4.0 (d4b70c2)
c         1.10107042511878   -2.45508388085788    0.34899534877860
c         1.57752539120254   -3.87194507574171    0.63769988683798
c        -0.33598420663113   -2.41973800486583   -0.18559622536522
o        -0.52808595282315   -2.53143721401708   -1.39325367059392
o         0.69880761095723    0.01233189744721   -0.38196835391887
o         1.47844388128984   -2.32190466701843   -3.31164346805762
n         1.92929433968676   -1.81655086440391   -0.65739839988322
c         1.57891010919188   -0.56121067326408   -1.00479768589703
c         2.12877721418034   -0.12776440293693   -2.34740757453572
c         1.38997521019245   -0.93270272894853   -3.46336871124676
n         2.02769715231551    1.30370733658622   -2.51521395455275
n        -1.28350038354812   -2.14793861867940    0.71234360896623
c        -2.63433851972577   -1.86025061599137    0.26024504261944
c        -3.61260980974946   -2.60836802227637    1.15151511580010
c        -2.93275663743254   -0.34343347530537    0.23619371976239
o        -3.89274796043033    0.15233154520440    0.78539475844610
n        -2.10260520715044    0.34610170099622   -0.56785088830262
o        -0.48781942799432    3.43837948555990   -0.94110212517013
o        -0.73677022022806    2.23195959669878    0.97882699035296
c        -2.22550262771159    1.78041467671577   -0.73840284884785
c        -0.98090314014917    2.55572706723973   -0.29324397308183
c        -2.61431437723537    2.06467317784595   -2.18213679580427
h         1.27427108153989   -1.90339980638915    1.28014468210407
h         1.48629233386617   -4.40580605171631   -0.30651569895279
h         1.00428892870643   -4.26321128091915    1.47400006428346
h         2.59474739523495   -3.94198241271203    1.01531311983404
h         0.73320339878185   -2.66990994013187   -2.78591010896258
h         2.54470389603408   -2.35170668049283   -1.25150540231720
h         3.19661682645486   -0.28108998723177   -2.15012382090182
h         1.84824093960814   -0.74867015747763   -4.44041042750400
h         0.31643204204666   -0.71168732012882   -3.53383462714928
h         1.21115508561206    1.69953176330836   -2.05512815406239
h         1.93132539216785    1.63159665966342   -3.47065793147036
h        -0.98507099741045   -2.29084916254886    1.66902547595767
h        -2.71283645383822   -2.34939131009084   -0.71848848258767
h        -4.59185268374904   -2.14547238111193    1.07335914239220
h        -3.31725266997823   -2.55778388128926    2.19677463717230
h        -3.68964619520631   -3.65490011465569    0.86815074409501
h        -1.20996412719436   -0.05030406600665   -0.83832824541641
h        -2.97808190326260    2.06380724545104    0.00751768531789
h        -2.54237793527899    3.12580961273786   -2.40302590239069
h        -3.66978916581269    1.80812079054268   -2.16034964517080
h        -2.06642690830406    1.53484778581820   -2.95771253471653
c         0.57145742186884    2.23513983166449    1.42947466818778
c         0.92091016877727    1.13969950485843    2.23473332065262
c         1.47271744210120    3.21790365587081    1.06103673670687
c         2.26705800220434    0.99096938516777    2.55751898803314
c         3.18113276044916    1.92370798031411    2.10779422852375
c         2.81421797900627    3.02629802186962    1.35332620149526
h         1.30169344643549    4.12496848698212    0.50306944382355
h         4.20962507330192    1.70878978435838    2.35448341565882
h         3.58196356992176    3.75662279867067    1.14835887209799
h         2.70937097666339    0.25010465339564    3.20680284120653
c        -0.03153419778298    0.12933944502955    2.68932136737813
o         0.24713654022771   -1.00545305427039    3.01028196855272
h        -1.05231749586095    0.54221675485777    2.72774251813212
56
 energy: -94.091150781877 gnorm: 0.104486465031 xtb: 6.4.0 (d4b70c2)
c         1.16147331354770   -2.23655090619900    0.40014679717396
c         1.69217229828849   -3.59551711190278    0.83537633846488
c        -0.25552075213244   -2.28627046881694   -0.18450637027015
o        -0.39509814583070   -2.71593569883893   -1.32631295141696
o         0.70565459318874    0.11033164315260   -0.64109984985645
o         1.75094428144290   -2.54258267668699   -3.26856425060426
n         2.04547660999721   -1.63691707768286   -0.58244422169806
c         1.54755523263642   -0.55802102229814   -1.22071688243914
c         2.17313342654734   -0.21975326844690   -2.55752565057719
c         1.46708721368286   -1.20002823673092   -3.54731507611667
n         1.90755830660217    1.15989429627271   -2.89446772334180
n        -1.28325697319993   -1.82177916259748    0.52680501499236
c        -2.64833332999895   -1.81913950363450    0.02832655165019
c        -3.48619402273428   -2.77433169706535    0.86298460862689
c        -3.19491004500212   -0.37321506926711    0.05869995764068
o        -4.27668256110385   -0.04530028675781    0.49599644937989
n        -2.27846058271455    0.50088261602484   -0.39646104764120
o        -0.61326912263979    3.54858530270794   -0.70820423612317
o        -0.61319950107659    2.11880407656786    1.02548213572824
c        -2.42369539677779    1.94169682222236   -0.46284447315708
c        -1.12335915602972    2.65857515359937   -0.08401104907050
c        -2.89827676518720    2.35513874243809   -1.84855133271380
h         1.11846045423682   -1.52298023987991    1.23102565657070
h         0.91730335850158   -4.32840865190871    1.05291301959897
h         2.20546133983898   -3.50574321064180    1.78908608634551
h         2.34528932618332   -3.90110004947358    0.02156136730039
h         1.05669205765368   -2.77055764034093   -2.62131786965767
h         2.57412149258924   -2.26517311148322   -1.16888497150389
h         3.25353168553948   -0.39137658338291   -2.63496012404573
h         1.99118769680993   -0.99303561376952   -4.48590908861673
h         0.38948495783408   -1.09186511794193   -3.73002334110660
h         1.34283956189873    1.55003117384213   -2.14347982433340
h         1.57920910319529    1.17347440717886   -3.85450652435059
h        -1.16624364588086   -1.46796002364024    1.46799768022213
h        -2.72821938304825   -2.04230717938032   -1.04272633298121
h        -4.52395349459990   -2.45503044368719    0.88296787450127
h        -3.16568476481406   -2.87260827792631    1.89738182331976
h        -3.54117694711049   -3.79541537812298    0.49444099899224
h        -1.35957192584394    0.11413320721765   -0.57859334553244
h        -3.09113573099442    2.24739950602617    0.35211174608814
h        -3.13540688361768    3.41400192609429   -1.89910280519929
h        -3.77507067676655    1.75837482866286   -2.08397883340364
h        -2.19328334327976    2.11851678308885   -2.64190351048140
c         0.70253886301438    2.12191023733314    1.45370627674163
c         1.02170447991901    1.09198960380165    2.35256388360633
c         1.70127860313401    2.84271423342649    0.82378454945531
c         2.32247005150850    1.06139457881486    2.84804150789751
c         3.32751622116931    1.83802198592651    2.30534604073769
c         3.01373605855629    2.64585350629792    1.22437263809505
h         1.49579642673056    3.52543622050015    0.01445700916525
h         4.36569790134502    1.76199498594810    2.59037326101096
h         3.83151253948947    3.19587214030258    0.78444047983425
h         2.40374271740707    0.24988154312759    3.55580712524881
c        -0.05467419408158    0.21356157129593    2.80467131960452
o         0.07140278792010   -0.86572240763264    3.34102734495636
h        -1.07259687034525    0.59276992046008    2.62034322327861
56
 energy: -94.090298258400 gnorm: 0.109613396229 xtb: 6.4.0 (d4b70c2)
c         1.14393968318134   -1.86575601236317    0.46556427348216
c         1.86721865666035   -3.11509724579866    0.94916462357625
c        -0.20646550700072   -2.21186951204628   -0.17379068483391
o        -0.19690330971805   -2.83040585276337   -1.23451574708711
o         0.46897991249142    0.16006578177888   -1.23439465565388
o         1.91454731332630   -2.68997694069126   -2.98845179026072
n         1.96621064669979   -1.33019628522539   -0.60380651514055
c         1.51149501031446   -0.42186946641435   -1.49122436943488
c         2.22166307180979   -0.29515995185340   -2.82255334389455
c         1.65258677451985   -1.48718445333056   -3.65583188305353
n         1.94079820051779    1.00629296662411   -3.38364400138673
n        -1.31011130633498   -1.80659107883390    0.45523482936883
c        -2.61047042932253   -1.86173878565383   -0.19125264194084
c        -3.64986692319281   -2.76774759536920    0.44895019905104
c        -3.18058734990879   -0.42517571716747   -0.15101181410422
o        -4.32145026935981   -0.16824795544193    0.16743441625528
n        -2.26889628084824    0.54203793675087   -0.36176055812344
o        -0.75120030752297    3.61955314413506   -0.46494554183017
o        -0.57364761936138    1.92012498977816    1.01569757762637
c        -2.53240273533049    1.95891365627775   -0.20532204068059
c        -1.17672324184439    2.62427321309599    0.05493438719820
c        -3.29314970342520    2.61742375765154   -1.34723871398585
h         0.95771269764989   -1.14759217631536    1.27238090702426
h         2.19764787016533   -2.94945430564788    1.97300691414400
h         2.72305160486864   -3.35966986943752    0.32560911808277
h         1.24857163296068   -4.00668726189867    1.01684542488646
h         1.13380303932989   -2.86048152402167   -2.42786889950383
h         2.75610355947187   -1.92462944817279   -0.80580206124872
h         3.29676525624172   -0.44827543353217   -2.66951088590603
h         2.15479395021060   -1.61274184687990   -4.62046096977398
h         0.57759319818764   -1.46454273145929   -3.87985052803847
h         0.96108765572112    1.24459863517801   -3.51956502255330
h         2.22684628442059    0.99646642172382   -4.35716957886706
h        -1.32618337462624   -1.08955701876126    1.16960697391189
h        -2.52601637882663   -2.01840064413369   -1.27368713521047
h        -4.50896348912211   -2.99792834830336   -0.17416074469936
h        -4.01797319998439   -2.34944456945980    1.38269663657521
h        -3.03085715472334   -3.64750406008210    0.60488243069478
h        -1.45204192158412    0.24319591662080   -0.88190095732417
h        -3.14871326543913    2.05436593139638    0.69697201287154
h        -3.51023635942178    3.64250465177253   -1.06077767311991
h        -4.25249545159721    2.11744064059984   -1.44720599739823
h        -2.74966133775137    2.65122424187091   -2.28845668921825
c         0.74567157218583    1.89160398972940    1.43179428599651
c         1.06612520805669    1.06164616397301    2.51762471448630
c         1.81336363858018    2.44619148365242    0.74892735136138
c         2.37424963435683    0.88267241768970    2.95944381517001
c         3.40902869195381    1.51098037327555    2.29442672802763
c         3.10697774303137    2.35630062690941    1.23908215923780
h         1.64161304046309    3.13381429260342   -0.06410396457759
h         4.36642159869255    1.32165398363484    2.75529131296307
h         3.88023176392709    2.85123783897108    0.67168938869887
h         2.43762352072853    0.19842778076042    3.79244073191025
c        -0.02262779974866    0.49590677716652    3.31083581229832
o        -0.00714663546897   -0.53429718057048    3.94869727313175
h        -0.86974211603869    1.18821115719347    3.44142822975641
56
 energy: -94.092234278177 gnorm: 0.113628363347 xtb: 6.4.0 (d4b70c2)
c         1.06297943484344   -1.52369678629195    0.37734697231771
c         1.80763829905951   -2.42736910575474    1.35033968075093
c        -0.19846335715581   -2.10648139048992   -0.27171981371635
o        -0.04935433085868   -2.76583877770584   -1.29682012020445
o         0.36071035140278    0.23554294303249   -1.69149606295843
o         2.23264976672022   -2.86854575084842   -2.88478550048933
n         1.89686460518019   -1.09860323602389   -0.73190441674715
c         1.42459692332418   -0.36049355132062   -1.75732711143574
c         2.25786406170556   -0.42328800076133   -3.02008344288229
c         2.04289269354060   -1.78590937528425   -3.75232225004274
n         1.91720373770040    0.72200665084325   -3.83232614500855
n        -1.37262488556520   -1.71995753886625    0.22818195930499
c        -2.65898473122858   -1.81185443746534   -0.44170943701305
c        -3.50092123034091   -2.97124854078350    0.06623245414458
c        -3.19790894400509   -0.37260878368003   -0.27289377529066
o        -4.30543989469485   -0.23325515016677    0.19927551560535
n        -2.38908728297595    0.66604896106228   -0.55234950749137
o        -0.76759136728736    3.58304805176963   -0.05839661274594
o        -0.68142361615278    1.66500080518989    1.20307539325271
c        -2.59210454356659    2.00516245930738   -0.03562472993937
c        -1.20394451249839    2.53657261611677    0.33709311981232
c        -3.33421373602382    3.01773091705667   -0.89604570442980
h         0.79525273669728   -0.59555287779302    0.89528921725859
h         2.84342338396244   -2.57661582288298    1.05075870442460
h         1.31844204770794   -3.38193056886029    1.52523025830266
h         1.86080606658517   -1.97646938103951    2.33831752236350
h         1.50515493644294   -3.02867096098246   -2.25391483163215
h         2.69294139060916   -1.69704082791956   -0.89382415603942
h         3.28545773972557   -0.49481055304275   -2.64372349511941
h         2.75501193877429   -1.98930543308914   -4.55854939305223
h         1.00498808240746   -1.83818377562620   -4.10775099922710
h         0.98694365202903    1.03538092802850   -3.56491335007504
h         2.18709979256294    0.53425676852685   -4.79231480057548
h        -1.47161448704112   -1.20041917824062    1.09131848947895
h        -2.51394407177073   -1.90660289055613   -1.52491107955711
h        -4.39713619031729   -3.01620574369147   -0.54538420136788
h        -3.75681386596355   -2.74173673285848    1.09783574627534
h        -2.85714493883140   -3.84626508017229    0.02938770680743
h        -1.54898245418205    0.37258112478341   -1.03732800148637
h        -3.22818602210483    1.80476642062960    0.83519450768445
h        -3.14439444008874    3.98132755993182   -0.43190399395948
h        -4.40084397885579    2.88586751695365   -1.05489409091378
h        -2.84854072101690    3.04986056652516   -1.86841536642648
c         0.66340010211380    1.64480291303979    1.52802804702685
c         0.98608313632659    1.06410328569544    2.76464109692412
c         1.62546718936428    2.07570692469658    0.63215443845881
c         2.33832762901570    0.88305794911196    3.04227871519699
c         3.31276322747937    1.26305064561170    2.14013286736331
c         2.95794105144512    1.83426362352488    0.92878229119628
h         1.48402864716373    2.58770608195382   -0.30656560305586
h         4.34214849499588    1.11389892768874    2.42816335570483
h         3.79054170389809    2.17724727413099    0.33383897590251
h         2.67512956920914    0.55023592756672    4.01278620769586
c        -0.03401969165052    0.58235419577584    3.69304620837740
o         0.20703405935705   -0.17563668283447    4.60725078999127
h        -1.08307815372816    0.77291880573509    3.41537036050050
56
 energy: -94.079138400137 gnorm: 0.116551112148 xtb: 6.4.0 (d4b70c2)
c         1.00517461215933   -1.34703403582255    0.19185784002696
c         1.56996065829732   -2.16842586897482    1.34259128644450
c        -0.19164958329307   -2.01220546223292   -0.49902732129778
o        -0.03418865357282   -2.75622519650240   -1.46311081528001
o         0.42701618402729    0.20217029012704   -1.92407095536924
o         2.51923906878851   -2.93996789351108   -2.69969958529297
n         1.93894018091263   -1.03015506488440   -0.87311972750278
c         1.47986187819876   -0.41398279466035   -1.98168330751456
c         2.39576187408822   -0.50843692618534   -3.18377998726968
c         2.23587634644146   -1.98073733132226   -3.67965446984550
n         1.95081286450073    0.46926650507851   -4.15001178116054
n        -1.36678258008239   -1.60727303098647   -0.01627488556276
c        -2.64004618573169   -1.60634515586053   -0.71678904575902
c        -3.42395404789837   -2.86886150779736   -0.39648040077709
c        -3.27410696204782   -0.33383707402241   -0.10928911322004
o        -4.24150537687881   -0.26120094635193    0.61724537333021
n        -2.50401722759339    0.68482897640475   -0.53399976879606
o        -0.78309639081191    3.50215411312680    0.48712200690419
o        -0.82534720162886    1.39948700564812    1.35413502112998
c        -2.65150639373114    1.98136352474955    0.09741968752016
c        -1.27200667338745    2.41197972279912    0.60717819394840
c        -3.19851396837797    2.99385104526921   -0.89857071347790
h         0.74726183634156   -0.32199141230313    0.48196382636976
h         1.01922303085681   -3.10719051866021    1.35941633656959
h         1.32285246195850   -1.66284517273994    2.27232940556305
h         2.65460548647866   -2.23411778276112    1.30427998242315
h         1.68622605046238   -3.06330011737273   -2.20597386633524
h         2.81779553596597   -1.52218176454819   -0.93317628344663
h         3.46365377259704   -0.52746839252593   -2.93487087248571
h         2.89929681712212   -2.12658898495942   -4.53819192120655
h         1.23098342577510   -2.17581933313778   -4.07770147762841
h         0.96670655445335    0.71991737852104   -4.21170276315991
h         2.17155579149965    0.23595990448229   -5.11256708214904
h        -1.42814644230459   -1.27088574483843    0.93651143997182
h        -2.50186260022212   -1.56922494302950   -1.80438604667342
h        -4.48190694010841   -2.77156526121370   -0.62135025913803
h        -3.31081456402521   -3.08190262197772    0.66379079149271
h        -3.06333912164158   -3.71173787538118   -0.98041164162990
h        -1.70731359179727    0.42917710759833   -1.10584682434316
h        -3.41857152189252    1.73371450510663    0.84130501752299
h        -3.57585128415303    3.83481328092865   -0.32378688944030
h        -3.98994503975807    2.62791975081564   -1.54668488369957
h        -2.35737218562972    3.26249986952698   -1.53317425463312
c         0.52597473224509    1.48317389615678    1.63957910401031
c         0.93761698528774    1.10181907482647    2.92630636611734
c         1.40716051789434    1.89603912215062    0.65627115444008
c         2.30809338108896    0.91092889563597    3.08051522290542
c         3.19617493962356    1.19569361619241    2.06168924526375
c         2.75591321471891    1.61967948005389    0.81832334868063
h         0.95104254420434    2.17111737213208   -0.28161559720683
h         4.26420708614943    1.10831821212305    2.19019852350816
h         3.53315643433969    1.80409318383358    0.09257981515402
h         2.57459959531372    0.61492654110831    4.08423220770483
c         0.03903819875765    0.72288894187012    4.01423828838935
o         0.48468532270623    0.42224536361833    5.10025812901685
h        -1.02860615902606    0.80190484960803    3.75378805024928
56
 energy: -94.082722662017 gnorm: 0.113823226278 xtb: 6.4.0 (d4b70c2)
c         1.07021536296999   -1.68982811220630    0.06705317363768
c         1.79865896101333   -2.73955006305579    0.89488712756657
c        -0.20572728777130   -2.12446962027293   -0.66453457433472
o        -0.12791232896197   -2.63746193191825   -1.77745866620294
o         0.47107417019857    0.04163747292739   -2.05972665444532
o         2.46054547126260   -3.02969673620643   -2.73659460766806
n         1.96919688455554   -1.16519491805196   -0.94443083259431
c         1.54765467079109   -0.53492323497940   -2.05995499317838
c         2.42530861518955   -0.62349504476832   -3.29069031064236
c         2.34470956738031   -2.10413308496119   -3.78093327559928
n         2.15982886770808    0.39993900004610   -4.27536831321094
n        -1.33953526578488   -1.79826297325401   -0.04322429057118
c        -2.62004663266383   -1.72185319580893   -0.72613963493094
c        -3.70146489911331   -2.77679907941082   -0.55678663751958
c        -3.12575904053953   -0.37994283836768   -0.14830087081680
o        -4.04637074648788   -0.36016440619196    0.63977969666032
n        -2.42021335173977    0.71854859238929   -0.47482766974405
o        -1.17919051882966    3.67730768110740    1.05861801828881
o        -0.88666825965201    1.50363309439246    1.47338814332823
c        -2.72375051391447    2.00254434090906    0.12572671642269
c        -1.52918278642011    2.53664625209349    0.92325208100439
c        -3.16670796413078    3.01233588636606   -0.92329898129814
h         0.95442720273167   -0.78706075558680    0.67778804036535
h         1.73612450790400   -2.55267876052779    1.96542094146426
h         2.86752832847090   -2.74913529282755    0.69863811755192
h         1.29356142683978   -3.69534522234941    0.77839813613337
h         1.55285558622642   -3.22467321026484   -2.43498250708959
h         2.73450198488862   -1.76996224872881   -1.20259431744666
h         3.41158070113562   -0.50910064207192   -2.82497328338144
h         3.18301355095245   -2.35024295063722   -4.44060163827418
h         1.38812940231936   -2.21698742741904   -4.30868935309150
h         1.14803559279880    0.39700386021879   -4.38196391375649
h         2.65048247239984   -0.01789998430607   -5.05916786752035
h        -1.32982237407007   -1.65439655369449    0.95873969908168
h        -2.49188909496282   -1.61750682848329   -1.81058757939483
h        -4.45266506544489   -2.68422804781576   -1.33552038718030
h        -4.28321095988828   -2.68736735476909    0.35750847465277
h        -3.42095717165170   -3.82621860974239   -0.59543193371109
h        -1.61212509910410    0.69203839179757   -1.08588758337982
h        -3.49743225028902    1.79198121067920    0.87416782947939
h        -3.13677430849131    4.00979771073987   -0.49417048303952
h        -4.17855696709090    2.81321278513174   -1.26510656422758
h        -2.42962426860236    3.05464974808660   -1.72162880892124
c         0.45796130141242    1.66885570330597    1.75485897767217
c         0.92348618931032    1.32246528120753    3.03307980140970
c         1.35919026314184    1.93070298915365    0.73846180606430
c         2.29633363487114    1.16694555067391    3.20491902494776