[Molden Format]
[Geometries] (XYZ)
12

C        0.497987       1.416711      -2.486450
C        0.261335       0.501435      -1.279110
C        1.571167       0.156895      -0.618512
O        1.061572       2.645536      -2.112328
O        2.368282       2.421105      -1.597349
O        1.807538       0.295876       0.548496
H        2.406530       2.989730      -0.815599
H        1.139334       0.916484      -3.223084
H       -0.445404       1.704465      -2.955107
H        2.317227      -0.272337      -1.313510
H       -0.200796      -0.423577      -1.627314
H       -0.395862       0.987377      -0.555944
12

C        0.719089       1.338581      -2.462044
C        0.660704       0.439792      -1.224167
C        1.768976      -0.140012      -0.346607
O        1.162634       2.637300      -2.162988
O        2.537339       2.516758      -1.763476
O        1.893411      -0.365917       0.803119
H        2.637999       3.174352      -1.063111
H        1.391286       0.895992      -3.211249
H       -0.269699       1.483350      -2.893375
H        2.443505      -1.181714      -1.030862
H        0.358045      -0.440332      -1.710200
H       -0.028304       0.722630      -0.428749
12

C        0.978016       1.070540      -2.404775
C        0.996726       0.225942      -1.132344
C        1.986895      -0.322976      -0.230688
O        1.293004       2.411955      -2.167636
O        2.697207       2.360551      -1.787094
O        2.068193      -0.681636       0.871473
H        2.814908       3.085898      -1.165588
H        1.721410       0.676969      -3.116447
H       -0.003705       1.079471      -2.865689
H        2.262315      -2.009536      -1.161599
H        0.884272      -0.766335      -1.731719
H        0.280663       0.353487      -0.316544
12

C        1.253526       0.741036      -2.370316
C        1.285034      -0.034540      -1.056078
C        2.227611      -0.410098      -0.243480
O        1.441130       2.090006      -2.199284
O        2.876958       2.064095      -1.777115
O        2.322146      -0.821264       0.839102
H        3.009757       2.830322      -1.227688
H        2.082111       0.402213      -3.015927
H        0.316907       0.621719      -2.890204
H        2.028890      -2.556947      -1.512106
H        1.387523      -1.214852      -1.730663
H        0.534693      -0.040807      -0.261439
12

C        1.349853       0.822655      -2.239122
C        1.359892       0.092910      -0.918920
C        2.455423      -0.272013      -0.039818
O        1.467094       2.197825      -2.053655
O        2.862502       2.304219      -1.557265
O        2.570129      -0.750276       1.014853
H        2.882943       3.119769      -1.040041
H        2.219157       0.501279      -2.853520
H        0.442451       0.674077      -2.804542
H        1.584509      -2.626632      -1.312669
H        1.450231      -1.279862      -1.648718
H        0.568126       0.041937      -0.175775
12

C        1.118582       0.972229      -2.356943
C        1.084258       0.266752      -1.006949
C        2.118801       0.085277      -0.237717
O        1.157765       2.338473      -2.324133
O        2.564775       2.523775      -1.845493
O        2.304177      -0.444915       0.786799
H        2.590218       3.397214      -1.480193
H        2.021139       0.683556      -2.911805
H        0.243298       0.733096      -2.946968
H        1.037305      -2.399712      -2.045650
H        1.177287      -1.427314      -1.879921
H        0.229982       0.129921      -0.355407
12

C        1.091124       1.074150      -2.388127
C        0.997683       0.400942      -1.029924
C        2.018683       0.257808      -0.300610
O        1.072556       2.479608      -2.417287
O        2.349709       2.934106      -1.943643
O        2.227411      -0.310470       0.717087
H        2.161650       3.851966      -1.707872
H        2.006257       0.763418      -2.911509
H        0.223101       0.823322      -3.004966
H        0.506256      -2.279054      -2.312581
H        0.782122      -1.606684      -2.046107
H        0.063821       0.280482      -0.503045
12

C        0.743779       1.646377      -2.197693
C        0.569517       1.124026      -0.836605
C        1.636712       0.867500       0.099462
O        0.693997       3.108553      -2.138910
O        1.809660       3.719953      -1.562733
O        1.997569       0.014361       0.906415
H        1.422777       4.618151      -1.332731
H        1.663515       1.275646      -2.672600
H       -0.113079       1.410038      -2.844112
H       -0.147996      -1.779352      -1.886199
H        0.173364      -1.089602      -1.641436
H       -0.422785       1.140295      -0.426817
12

C        0.915753       1.530872      -2.225897
C        0.635982       0.890953      -0.885555
C        1.584145       0.525409      -0.081411
O        1.038950       2.930335      -2.154139
O        2.280917       3.260619      -1.532816
O        2.434815       0.142763       0.609073
H        2.149155       4.185133      -1.285587
H        1.820719       1.105475      -2.674417
H        0.065443       1.391180      -2.896762
H       -0.224339      -2.085741      -2.360237
H        0.065976      -1.444981      -2.022018
H       -0.378606       0.907681      -0.526043
[GEOCONV]
energy
0.0
37.9977478384
97.8538026546
128.952488918
114.11536026
73.70671424
60.8058539652
66.0184425021
34.7787287748
max-force
5.08503455354e-05
0.00757382832029
0.0116764225807
0.0431381183771
0.00959236412587
0.00983828065939
0.00815912954197
0.00838871833264
7.0927202279e-05
max-step
1000.0
1000.0
1000.0
1000.0
1000.0
1000.0
1000.0
1000.0
1000.0
