[Molden Format]
[Geometries] (XYZ)
12

C        0.497987       1.416711      -2.486450
C        0.261335       0.501435      -1.279110
C        1.571167       0.156895      -0.618512
O        1.061572       2.645536      -2.112328
O        2.368282       2.421105      -1.597349
O        1.807538       0.295876       0.548496
H        2.406530       2.989730      -0.815599
H        1.139334       0.916484      -3.223084
H       -0.445404       1.704465      -2.955107
H        2.317227      -0.272337      -1.313510
H       -0.200796      -0.423577      -1.627314
H       -0.395862       0.987377      -0.555944
12

C        0.557068       1.540067      -2.479529
C        0.483433       0.641548      -1.242166
C        1.606765       0.068673      -0.411464
O        1.006678       2.835385      -2.198885
O        2.373858       2.712630      -1.784358
O        1.715667      -0.128340       0.746077
H        2.461522       3.361773      -1.075503
H        1.225254       1.088464      -3.222627
H       -0.431513       1.685606      -2.909878
H        2.241982      -0.925858      -1.073731
H        0.164063      -0.276622      -1.742839
H       -0.212809       0.931295      -0.448755
12

C        0.619728       1.561440      -2.458660
C        0.610855       0.705413      -1.190132
C        1.643070       0.122124      -0.298252
O        0.959138       2.896290      -2.229910
O        2.343004       2.857131      -1.830920
O        1.746578      -0.222175       0.812242
H        2.434161       3.587517      -1.208785
H        1.353140       1.153563      -3.161844
H       -0.361967       1.587211      -2.919528
H        1.892570      -1.486843      -1.178492
H        0.490700      -0.243768      -1.756945
H       -0.123170       0.868148      -0.386720
12

C        0.685372       1.512593      -2.415010
C        0.665008       0.704293      -1.127319
C        1.681261       0.257225      -0.269683
O        0.914146       2.881493      -2.201324
O        2.301308       2.935694      -1.800064
O        1.848283      -0.118262       0.791624
H        2.380722       3.757235      -1.301608
H        1.494049       1.143144      -3.067361
H       -0.267096       1.449589      -2.934894
H        1.374735      -1.806835      -1.460877
H        0.731559      -0.415761      -1.744710
H       -0.128754       0.796840      -0.370246
12

C        0.726182       1.494699      -2.398648
C        0.752697       0.737252      -1.102272
C        1.734929       0.331169      -0.284979
O        0.907349       2.876320      -2.161137
O        2.265305       3.061179      -1.739469
O        1.914606      -0.090885       0.769662
H        2.221574       3.866090      -1.201929
H        1.538092       1.153243      -3.061209
H       -0.217490       1.420635      -2.930710
H        0.967344      -1.921394      -1.303806
H        0.694408      -0.705038      -1.827397
H       -0.019148       0.733238      -0.332556
12

C        0.763432       1.449902      -2.335623
C        0.764791       0.795017      -0.994580
C        1.701802       0.431600      -0.147785
O        0.903284       2.856004      -2.234204
O        2.262086       3.113377      -1.842567
O        2.050661       0.009539       0.861556
H        2.197009       3.941301      -1.349223
H        1.603310       1.066340      -2.937021
H       -0.165940       1.309110      -2.885508
H        0.686715      -1.873381      -1.862217
H        0.749195      -1.059014      -1.878116
H       -0.085490       0.682960      -0.321426
12

C        0.837462       1.420421      -2.289125
C        0.735600       0.768704      -0.941075
C        1.736003       0.530709      -0.140680
O        0.891203       2.830345      -2.235222
O        2.173887       3.211596      -1.736727
O        2.257162       0.104498       0.804897
H        2.028497       4.124943      -1.456870
H        1.723960       1.055151      -2.820670
H       -0.052035       1.223646      -2.891260
H        0.323749      -2.006289      -2.101218
H        0.547706      -1.287406      -1.884039
H       -0.211849       0.727553      -0.423266
12

C        0.947940       1.440734      -2.281745
C        0.808589       0.873150      -0.918104
C        1.855382       0.618039      -0.037686
O        0.906014       2.871254      -2.232271
O        2.072416       3.442500      -1.677802
O        2.262160      -0.162491       0.733176
H        1.750012       4.321908      -1.428581
H        1.857300       1.090493      -2.781306
H        0.080699       1.201560      -2.891543
H        0.087397      -1.997090      -2.002748
H        0.399523      -1.322827      -1.755255
H       -0.168303       0.888960      -0.476984
12

C        0.915753       1.530872      -2.225897
C        0.635982       0.890953      -0.885555
C        1.584145       0.525409      -0.081411
O        1.038950       2.930335      -2.154139
O        2.280917       3.260619      -1.532816
O        2.434815       0.142763       0.609073
H        2.149155       4.185133      -1.285587
H        1.820719       1.105475      -2.674417
H        0.065443       1.391180      -2.896762
H       -0.224339      -2.085741      -2.360237
H        0.065976      -1.444981      -2.022018
H       -0.378606       0.907681      -0.526043
[GEOCONV]
energy
0.0
29.5832486687
87.1016501293
116.755408555
103.323813267
49.4781100919
40.5343266735
51.7476164458
34.7787287748
max-force
5.08503455354e-05
0.0070723612367
0.00679168344984
0.00827935655248
0.0102817097808
0.0066479436696
0.00253371261252
0.011747962916
7.0927202279e-05
max-step
1000.0
1000.0
1000.0
1000.0
1000.0
1000.0
1000.0
1000.0
1000.0
