[Molden Format]
[Geometries] (XYZ)
9

C       -2.509948      -0.039892       1.241218
C       -1.132669      -0.081505       1.830121
C       -0.023986      -0.012389       1.117251
H       -1.075037      -0.174183       2.906575
H       -3.269617      -0.111902       2.014617
H       -2.661820       0.888655       0.692065
H       -2.649977      -0.862348       0.540662
H       -0.047159       0.080311       0.043252
H        0.951615      -0.045058       1.571139
9

C       -2.519056      -0.291887       1.216318
C       -1.122425      -0.070526       1.553697
C        0.088827      -0.154711       1.042026
H       -1.113613       0.089872       2.775263
H       -3.244059      -0.309750       2.017356
H       -2.771942       0.942992       0.967600
H       -2.723609      -1.054460       0.479593
H        0.270132       0.116463       0.011874
H        0.951088      -0.374887       1.641388
9

C       -2.469514      -0.477687       1.200476
C       -1.153920      -0.135806       1.324528
C        0.115328      -0.192037       0.977974
H       -1.275890       0.347554       2.832712
H       -3.170928      -0.408779       2.016841
H       -2.681358       1.190273       1.241812
H       -2.761253      -1.252915       0.498615
H        0.444129       0.179227       0.020075
H        0.879955      -0.499653       1.667501
9

C       -2.435140      -0.634781       1.152266
C       -1.170048      -0.274466       1.143013
C        0.114306      -0.203808       0.938001
H       -1.458043       0.686512       2.923090
H       -3.119935      -0.458008       1.969088
H       -2.504861       1.465505       1.565125
H       -2.789266      -1.433567       0.509950
H        0.511122       0.265257       0.051327
H        0.829146      -0.542977       1.667176
9

C       -2.431530      -0.769213       1.078094
C       -1.181921      -0.415912       1.009939
C        0.091572      -0.204082       0.898542
H       -1.639517       1.071072       2.967960
H       -3.104654      -0.476745       1.872413
H       -2.333830       1.699368       1.903056
H       -2.816906      -1.584332       0.482906
H        0.507038       0.346060       0.071303
H        0.793399      -0.558909       1.637739
9

C       -2.433715      -0.885024       0.993830
C       -1.197020      -0.532529       0.922385
C        0.052612      -0.206814       0.852661
H       -1.806081       1.511724       3.066465
H       -3.127072      -0.477683       1.716888
H       -2.227622       2.000686       2.234337
H       -2.810118      -1.719345       0.425945
H        0.440386       0.423784       0.072590
H        0.774919      -0.575928       1.569830
9

C       -2.426179      -1.033280       0.932146
C       -1.196646      -0.639607       0.854574
C        0.034047      -0.249147       0.778275
H       -1.905721       1.869164       3.298151
H       -3.135952      -0.549801       1.584956
H       -2.141615       2.262076       2.671294
H       -2.796195      -1.861355       0.349305
H        0.349914       0.498314       0.068472
H        0.799748      -0.654674       1.419727
[GEOCONV]
energy
0.0
37.795867348
123.384284926
141.634779253
103.979237544
67.2156741963
51.4985560217
max-force
3.27581154226e-05
0.00830333664197
0.00826557452961
0.00556254515279
0.00907670423652
0.0101368211284
8.18886007421e-05
max-step
1000.0
1000.0
1000.0
1000.0
1000.0
1000.0
1000.0
