[Molden Format]
[Geometries] (XYZ)
9

C       -2.509948      -0.039892       1.241218
C       -1.132669      -0.081505       1.830121
C       -0.023986      -0.012389       1.117251
H       -1.075037      -0.174183       2.906575
H       -3.269617      -0.111902       2.014617
H       -2.661820       0.888655       0.692065
H       -2.649977      -0.862348       0.540662
H       -0.047159       0.080311       0.043252
H        0.951615      -0.045058       1.571139
9

C       -2.547092      -0.255082       1.237130
C       -1.144574      -0.031774       1.581758
C        0.068774      -0.124938       1.073532
H       -1.131862       0.129567       2.779277
H       -3.265949      -0.278394       2.043957
H       -2.812827       0.950086       1.007209
H       -2.748663      -1.010070       0.493950
H        0.258959       0.143989       0.044197
H        0.926346      -0.354707       1.676535
9

C       -2.511091      -0.446182       1.224898
C       -1.183380      -0.100165       1.352681
C        0.088907      -0.163082       1.011894
H       -1.300593       0.377142       2.819254
H       -3.203054      -0.377941       2.045571
H       -2.727212       1.189071       1.286936
H       -2.810374      -1.207947       0.512458
H        0.430254       0.208347       0.057756
H        0.846803      -0.477624       1.706108
9

C       -2.471832      -0.604738       1.173991
C       -1.207293      -0.248556       1.170906
C        0.074527      -0.179527       0.957197
H       -1.500497       0.726449       2.914035
H       -3.156324      -0.434075       1.984873
H       -2.526579       1.475265       1.603077
H       -2.823756      -1.395759       0.517955
H        0.474832       0.289042       0.071080
H        0.789440      -0.515502       1.687017
9

C       -2.458008      -0.749910       1.094541
C       -1.209371      -0.401171       1.031267
C        0.063594      -0.190291       0.917720
H       -1.694376       1.122565       2.934330
H       -3.126616      -0.460664       1.890380
H       -2.328148       1.690614       1.965361
H       -2.844412      -1.554314       0.486120
H        0.481318       0.363879       0.092563
H        0.763365      -0.543276       1.658013
9

C       -2.440147      -0.885750       1.003876
C       -1.203201      -0.533835       0.935183
C        0.047235      -0.210721       0.868439
H       -1.815601       1.510754       3.078754
H       -3.135240      -0.477465       1.724325
H       -2.228595       1.996163       2.253711
H       -2.815052      -1.719699       0.434130
H        0.437421       0.420550       0.090139
H        0.767845      -0.584700       1.584756
9

C       -2.426179      -1.033280       0.932146
C       -1.196646      -0.639607       0.854574
C        0.034047      -0.249147       0.778275
H       -1.905721       1.869164       3.298151
H       -3.135952      -0.549801       1.584956
H       -2.141615       2.262076       2.671294
H       -2.796195      -1.861355       0.349305
H        0.349914       0.498314       0.068472
H        0.799748      -0.654674       1.419727
[GEOCONV]
energy
0.0
34.5762561664
119.326449457
138.99761417
93.6202601467
66.3218294271
51.4985560217
max-force
3.27581154226e-05
0.00785471704497
0.0072955283419
0.00441722747566
0.00870633011143
0.0105465740544
8.18886007421e-05
max-step
1000.0
1000.0
1000.0
1000.0
1000.0
1000.0
1000.0
