12
 energy: -21.567258816759 gnorm: 0.000848076992 xtb: 6.2.3 (830e466)
C         1.54098870983746    1.44219998886377   -2.10130890548707
C         0.58716199161715    0.50688291543761   -1.35041966929230
C         1.30176219373210   -0.63066804101348   -0.68887810890954
O         0.90161248465368    2.58877052382361   -2.58815503060716
O         0.52049993698461    3.41880730941396   -1.48653309835373
O         0.92416338583152   -1.76664009976129   -0.66665765684208
H         0.14817377791217    4.18793147046191   -1.93690301292974
H         2.37930275356998    1.72740889687724   -1.45225319049782
H         1.92556682180398    0.97013350558745   -3.00864204539791
H         2.24184760125102   -0.32911602135147   -0.18340288312026
H        -0.19203925009620    0.13014740907403   -2.01487992982196
H         0.11026959290250    1.09424214258668   -0.55787646874047
12
Properties=species:S:1:pos:R:3 0.000879510633=T gnorm:=T pbc="F F F" energy:=T -21.658765470486=T xtb:=T 6.2.3=T 830e466=T
C       1.49160129       1.30777468      -1.94598066 
C       0.16198191       1.90747086      -1.45324060 
C       1.73587185      -0.84995367      -1.01247066 
O       1.39725650      -0.09912606      -2.05480517 
O       0.21351673       3.30541564      -1.38520251 
O       1.61052118      -2.03228413      -0.98784459 
H       0.28185891       3.67042728      -2.27525352 
H       2.30014886       1.59292424      -1.26133906 
H       1.72414139       1.67716635      -2.94925922 
H       2.16336579      -0.26439089      -0.16835664 
H      -0.64958341       1.56125544      -2.10650741 
H      -0.04137101       1.56342026      -0.43564996 
