12
 energy: -21.567090368898 gnorm: 0.000546993120 xtb: 6.2.3 (830e466)
C         0.89810944782939    1.21282746319745   -2.50470164472418
C         0.40092770165140    0.48094365947397   -1.25534726374515
C         1.52938840002922   -0.11811425594971   -0.46261014670643
O         1.76129719246518    2.27835906125553   -2.21204564026594
O         1.01903797985812    3.32686075909361   -1.58442152165349
O         1.57888376725938   -0.17999613995917    0.73162481004625
H         1.71980078384374    3.90147795786713   -1.25138678732030
H         1.51740830445329    0.55965331718494   -3.12574388715428
H         0.04469637564552    1.57455815379156   -3.09103360881918
H         2.34547751277851   -0.52410925131209   -1.09328892520756
H        -0.25651859468824   -0.33505764667940   -1.56505809016213
H        -0.16930887112543    1.16258692203625   -0.62167729428761
12
Properties=species:S:1:pos:R:3 6.2.3=T gnorm:=T pbc="F F F" 0.000480078628=T energy:=T xtb:=T 830e466=T -21.600520693622=T
C       0.99549580       0.21476827      -2.61307981 
C       0.46662330       0.51815864      -1.20789121 
C       1.55614708       1.14449732      -0.38383767 
O       1.79034925       2.46942171      -0.55021917 
O       0.94161887       3.14274012      -1.46325231 
O       2.26447270       0.58077439       0.39873685 
H       1.22625983       4.06251020      -1.35759391 
H       1.86337423      -0.43778485      -2.55581986 
H       1.27723990       1.13313658      -3.12168495 
H       0.22362418      -0.28066489      -3.19583910 
H      -0.38334430       1.19848718      -1.27152585 
H       0.16733918      -0.40605467      -0.71368300 
