10
 energy: -20.522862683321 gnorm: 0.000474015074 xtb: 6.2.3 (830e466)
C         0.36251177714638    1.82535749168976   -1.57768184164180
C         0.50015385296573    0.52218666321266   -1.27454134355319
C         1.46777918017602    0.04274925048973   -0.30323121192237
O         1.11103506668598    2.76076345474604   -1.00240744687569
O         0.78776366367621    4.05690108923395   -1.47821235702735
O         2.23575853319128    0.73151771648668    0.32434293404671
H         1.40212866655083    4.62106567248261   -0.98591759623149
H        -0.36073404649369    2.18116945264967   -2.30305030434628
H         1.45156341510301   -1.05764551466479   -0.17085836798625
H        -0.13126010900174   -0.19466527632633   -1.77066246446227
10
Properties=species:S:1:pos:R:3 0.000993051300=T 6.2.3=T gnorm:=T -20.443421888938=T pbc="F F F" energy:=T xtb:=T 830e466=T
C       1.58418843       2.27914303      -0.92727240 
C       1.55273448       1.12957893      -0.53585154 
C       1.61357071      -0.21568859      -0.10333789 
O       1.57801979       3.48110543      -1.32989141 
O       0.32038674       4.16915785      -1.09189525 
O       2.55522482      -0.95784818      -0.19973597 
H       0.49072457       5.04112250      -1.47469522 
H      -0.45275084       0.62817345      -2.39424035 
H       0.65485474      -0.53221328       0.35738241 
H      -1.07025343       0.46686887      -2.84268237 
