12
 energy: -21.513815944080 gnorm: 0.000912359261 xtb: 6.2.3 (830e466)
C         0.35836756197191    1.17114472083210   -2.44180727948421
C        -0.82993694461212    1.13400837075740   -1.87270792808647
C         2.74593626548437   -0.00789564051977   -0.71709073484329
O         1.44014570267317    1.92003227925167   -2.08404624954278
O         1.23595447570895    2.71912347772056   -0.93201608630368
O         2.40388827779857   -0.93830284120569   -1.38341017866019
H         1.19971301849016    3.62495716152806   -1.27395486237564
H         3.65562924715333    0.57455827150363   -0.93159002700519
H         0.65391768913090    0.58787206617676   -3.30142377377738
H         2.18312683050945    0.33440396485657    0.16563080287796
H        -1.59967891394230    0.49579390341858   -2.26024485074306
H        -1.05775321036593    1.72458426567884   -1.00302883205596
12
Properties=species:S:1:pos:R:3 0.000783447535=T 6.2.3=T gnorm:=T -21.559862070379=T pbc="F F F" energy:=T xtb:=T 830e466=T
C       0.94925705       1.25856180      -1.40738013 
C      -0.31783224       1.08239252      -1.73919775 
C       1.98594723       0.16172156      -1.29408129 
O       1.55411732       2.45226405      -1.12994722 
O       0.64608143       3.54932090      -1.14290357 
O       1.58365490      -1.04539979      -1.87514561 
H       1.23598133       4.29164804      -0.95224257 
H       2.92676083       0.52714174      -1.73360262 
H       1.35168260      -0.88495553      -2.79725575 
H       2.16917354      -0.05668991      -0.23767890 
H      -0.69638461       0.09496342      -1.92187183 
H      -0.99912937       1.90931121      -1.80438277 
