12
 energy: -21.561947428125 gnorm: 0.000876426812 xtb: 6.2.3 (830e466)
C         2.19458843211819    1.23067294615514   -1.81949178528421
C        -0.04216129997624    0.33721252927638   -0.29989419920303
C         0.22363067769710   -0.05115157825369   -1.53424068451830
O         1.72347868034788    2.50210409985979   -1.49676108186097
O         1.57232250462507    3.30278529966222   -2.65229185358720
O         1.23194541139848    0.37213325546879   -2.35417789801857
H         0.61906000845053    3.30496469015384   -2.82852128517710
H         2.58790708359640    0.84859990099137   -0.86667390899680
H         2.98980589100968    1.28792721388558   -2.57158351248833
H        -0.36890701557350   -0.78866686106864   -2.05758044315145
H         0.52796205805135    1.08873563402762    0.21589393424246
H        -0.87033243174482   -0.09530713015846    0.22952271804369
12
Properties=species:S:1:pos:R:3 6.2.3=T gnorm:=T -21.558406344721=T pbc="F F F" energy:=T 0.000721022435=T 830e466=T xtb:=T
C       2.64919736       0.54602713      -1.26074980 
C      -0.18859218       1.12452077      -1.48745551 
C       0.37362149      -0.08233038      -1.39282332 
O       0.47639232       2.31419060      -1.36548913 
O       0.11409629       3.20088523      -2.44248183 
O       1.64999203      -0.44924351      -1.17995617 
H       0.09039738       4.06459855      -2.00982117 
H       3.59105546       0.04130571      -1.05127275 
H       2.68295703       0.98936280      -2.25903060 
H      -0.27084896      -0.95002778      -1.40336487 
H       2.47545713       1.33708710      -0.52678626 
H      -1.25442534       1.20363377      -1.65656857 
