12
 energy: -21.561956719956 gnorm: 0.000451897172 xtb: 6.2.3 (830e466)
C         1.77498932683254    1.41157311112569   -2.41508021431663
C        -0.28864595619067   -0.00932124670379   -1.05689267094928
C         0.99360353697969   -0.07927233567577   -0.74741048017535
O         0.98902104152773    2.53290715631655   -2.15457912157780
O         1.73430658520241    3.53965734537139   -1.49935974610815
O         2.03456315914425    0.61336919659744   -1.29922392435311
H         1.48983286779304    3.46273915308240   -0.56434457163945
H         2.75759038990941    1.70373144218213   -2.80347245840838
H         1.20243558430831    0.86447113520385   -3.17709381606008
H         1.37578181953067   -0.72895232215390    0.02774421411477
H        -0.99777181174931   -0.62602207187336   -0.53788012733372
H        -0.67670654328791    0.65472943652731   -1.80820708319310
12
Properties=species:S:1:pos:R:3 6.2.3=T gnorm:=T -21.644083197529=T pbc="F F F" energy:=T 0.000565350352=T xtb:=T 830e466=T
C       1.72424357       1.22676155      -2.68279277 
C       0.61806373       0.91938134       0.06881057 
C       0.90465584      -0.02893478      -0.81753722 
O       0.81057629       2.28541797      -2.81576806 
O       0.50050984       2.25633653      -0.08507169 
O       1.15468628       0.06315873      -2.18341441 
H       0.55087160       2.49801599      -1.02888598 
H       2.52666095       1.60397509      -2.03513600 
H       2.13618818       0.95099631      -3.66301090 
H       0.93144945      -1.06158160      -0.51149962 
H       0.45402242       0.62418494       1.09475489 
H       0.07707185       2.00189792      -3.37624882 
