12
 energy: -21.559165980924 gnorm: 0.000620458062 xtb: 6.2.3 (830e466)
C         2.26456449106436    1.33471002736425   -2.03876011398720
C        -0.30952528376209   -0.10622806520793   -0.02199025350334
C         0.49310503095214    0.18869679406770   -1.02821824420437
O         1.52397196712775    2.06975242648510   -2.95828911630586
O         1.43542518537604    3.43290898176155   -2.54125710709530
O         1.57853946002555    1.00840103215241   -0.87470066143265
H         0.64866779240818    3.74461174334860   -3.00720305226675
H         2.54876760743090    0.43849080064945   -2.61257074316449
H         3.15361186105835    1.89018229473751   -1.71968149048523
H         0.34120970688810   -0.19730940241274   -2.03065758974874
H        -1.14633887543936   -0.76294045795173   -0.16173795151121
H        -0.14261894312995    0.29852382500580    0.95914632370519
12
Properties=species:S:1:pos:R:3 6.2.3=T gnorm:=T pbc="F F F" energy:=T -21.539419935459=T 830e466=T xtb:=T 0.000828375862=T
C       2.10589591       1.24035322      -2.71062046 
C      -0.38008089       0.19319572      -0.12758682 
C       0.73292267      -0.24324575       0.34796475 
O       0.86020329       1.89419198      -2.69549491 
O       0.96158717       3.14266269      -2.03014196 
O       1.74999833      -0.63535660       0.75968134 
H       0.84525009       3.80094773      -2.73029672 
H       2.47466846       1.06490323      -1.69718203 
H       2.84837924       1.80586185      -3.28260812 
H       1.89925393       0.29108116      -3.20138320 
H      -1.32640103      -0.10649951       0.27503225 
H      -0.38229716       0.89170427      -0.94328411 
