10
 energy: -20.524295733301 gnorm: 0.000679081782 xtb: 6.2.3 (830e466)
C         0.36732008841503    1.77452638150830   -2.03423281448629
C         0.60844075522852    0.61324087527578   -1.41558531252335
C         1.29310452514317    0.39539900946989   -0.14794019265064
O         0.64126982790114    3.04615490624588   -1.73956102553028
O         1.33044658031354    3.27651746852497   -0.51670149172167
O         1.47703592324785   -0.70190655792642    0.32280607825595
H         1.41902284865537    4.24064549299611   -0.50411067027402
H        -0.15370631482425    1.80719693935678   -2.98561509949277
H         1.64382457207647    1.30128674829406    0.37095791850404
H         0.26224119384319   -0.28586126374536   -1.90491739008098
10
Properties=species:S:1:pos:R:3 -20.535638943967=T 6.2.3=T gnorm:=T pbc="F F F" energy:=T xtb:=T 0.000446356398=T 830e466=T
C       0.36726652       1.71218015      -2.36297730 
C       0.35166730       0.71116932      -1.47463212 
C       1.67997201       0.71253359      -0.86330336 
O       1.53974116       2.35860619      -2.40475219 
O       2.37371990       1.74522658      -1.47412659 
O       2.18589436       0.03610610      -0.02180109 
H       0.44200904       3.37659196       1.06045513 
H      -0.37163894       2.09242546      -3.04429583 
H       0.75373889       2.69121691       1.25610206 
H      -0.43337025       0.03114374      -1.22556871 
