12
 energy: -21.559755743277 gnorm: 0.000774688319 xtb: 6.2.3 (830e466)
C         2.23634940862003    1.04893903608703   -2.23231340436446
C        -0.40683621958115    0.33806809322538    0.06541734922031
C         0.37728451065778    0.33581721084602   -0.99703163702732
O         1.58836800281900    1.90078695706789   -3.12702995893158
O         1.80802433923067    3.25652682211659   -2.79546232414280
O         1.60095662143441    0.95246189571090   -0.99580992442041
H         1.04167254873261    3.51232806055364   -2.25892448559795
H         3.25608768287667    1.39240487258536   -2.02469486956093
H         2.24975085782614    0.08671696018663   -2.76506494172649
H         0.10414446093337   -0.14945295769130   -1.92824812369841
H        -0.11505614896931    0.83532404685366    0.97333679851189
H        -1.35154606458016   -0.17012099754180    0.05001552173812
12
Properties=species:S:1:pos:R:3 6.2.3=T gnorm:=T 0.000364140288=T pbc="F F F" -21.652329426356=T energy:=T xtb:=T 830e466=T
C       2.22858341       0.78922667      -2.26571408 
C      -0.23267034       0.90749217       0.29368712 
C       0.40640365       1.24983572      -0.81569661 
O       1.77834700       1.37830672      -3.45527416 
O       0.31517749       2.48047780      -1.35972561 
O       1.18433348       0.31194749      -1.47039135 
H       0.71085171       2.48982378      -2.24718338 
H       2.81280700       1.56451477      -1.75188240 
H       2.86385077      -0.08310213      -2.46264203 
H       1.31663644       0.71701733      -3.98596863 
H      -0.10985381      -0.07179633       0.70859231 
H      -0.88526679       1.60605602       0.77638882 
