12
 energy: -21.510218746061 gnorm: 0.000882954154 xtb: 6.2.3 (830e466)
C         0.31535931672844    0.96127875574974   -1.68143134081251
C        -0.99694236580694    0.97411783127097   -0.91547196039675
C         3.48270360340414    0.54862491764577   -1.37597766741724
O         0.86314885850649    2.25434263734224   -1.55177303630867
O         2.13222757876638    2.30253550379975   -2.19633159922807
O         3.92714590982285    0.12707190286034   -2.33001030500653
H         2.56387499665098    3.03698335748026   -1.73811783802556
H         1.01427248109833    0.22683294321855   -1.25857750344244
H         0.15379102322256    0.72834567843635   -2.74191326250521
H        -1.47077139821698    0.00023938653211   -0.99007988230420
H        -1.66011715422544    1.72891170405749   -1.32841418859276
H        -0.81375285002740    1.20575538176728    0.12985858379893
12
Properties=species:S:1:pos:R:3 0.000700582654=T 6.2.3=T gnorm:=T pbc="F F F" energy:=T -21.488907898287=T xtb:=T 830e466=T
C       0.56981466       1.06455556      -1.95489492 
C      -0.64153899       0.75119920      -1.09433674 
C       2.45264304      -0.11142892      -0.99553934 
O       1.11906266       2.24936960      -1.50982865 
O       1.93546066       2.82331025      -2.53159238 
O       1.52213230      -0.06111289      -1.83556746 
H       2.48261365       3.45035646      -2.03825747 
H       2.51941242       0.78999158      -0.33951602 
H       0.33207509       1.11462589      -3.02364307 
H      -1.03638325      -0.22097286      -1.37382899 
H      -1.40272263       1.51295260      -1.23282853 
H      -0.34162961       0.73219352      -0.04840642 
