12
 energy: -21.579037220342 gnorm: 0.000847333913 xtb: 6.2.3 (830e466)
C         1.80527815660970    1.39659179761139   -2.30114500879327
C         0.31291374347823    0.01453848258874   -0.75421746310141
C         1.69936134250978    0.29890093928317   -1.23892844467680
O         0.65431216065698    2.17490049660208   -2.48729475587617
O         0.44386277981731    3.02051229970247   -1.35902090096762
O         2.68747971815420   -0.27282167195449   -0.85895286187801
H         0.23728779139239    3.87559689716218   -1.76069652949412
H         2.68127488577128    2.02096063126830   -2.08267834029550
H         1.95467827754104    0.91776576590751   -3.27432996804596
H         0.31133090507656   -0.84900812049868   -0.09569732962433
H        -0.34608367518138   -0.14762259713737   -1.60440064698208
H        -0.05268608582623    0.88955507946476   -0.21871775026471
12
Properties=species:S:1:pos:R:3 6.2.3=T gnorm:=T pbc="F F F" 0.000590514136=T -21.453708733311=T energy:=T xtb:=T 830e466=T
C       2.32167575       1.39581970      -2.31647613 
C       0.57931207       0.48300355      -0.71099041 
C       1.73816081       0.19532765      -1.63781934 
O      -0.93066390       2.38911445      -1.74170165 
O      -1.67656250       2.97404187      -0.93745584 
O       2.14164748      -0.92960644      -1.77249629 
H       1.57098212       1.82563460      -2.97722277 
H       2.58352160       2.15196570      -1.58023410 
H       3.20014329       1.12015383      -2.89290255 
H       0.02124123      -0.42158271      -0.47850614 
H      -0.10128520       1.21806075      -1.20115878 
H       0.94083727       0.93793704       0.21088401 
