12
 energy: -21.604819150007 gnorm: 0.000180347018 xtb: 6.2.3 (830e466)
C         1.11387094873639    0.99502950185684   -2.91718238352731
C         0.96980934515476    0.22621131027773   -1.59413309952141
C         0.73121383793621    1.37627001760782   -0.59673876146432
O         1.36330693029997    2.33205918554690   -2.54631882334419
O         1.81131424700767    1.43522399361340    0.27957097029838
O         0.58753823828351    2.53692196351320   -1.36984488825537
H         1.83058824727030    2.30205569662264    0.70180143671685
H         0.19380933961859    0.92684914463027   -3.51291321777345
H         1.96986221953053    0.68291689046088   -3.51438352597889
H        -0.21698993473876    1.28844985296057   -0.04225341048736
H         0.14615678400632   -0.48110517372026   -1.61502712374183
H         1.88882979689451   -0.28089238337001   -1.30828717292111
12
Properties=species:S:1:pos:R:3 -21.564903031067=T gnorm:=T 6.2.3=T pbc="F F F" energy:=T xtb:=T 830e466=T 0.000416802350=T
C       0.89577431       1.03227443      -2.65448361 
C       0.19627727       0.32728045      -1.51951931 
C       0.10952807       0.79304337      -0.27606558 
O       2.31071371       1.01588478      -2.59918073 
O       0.64626593       1.92540570       0.20754874 
O       2.76917389       2.00377497      -1.66882542 
H       1.24629545       2.30946321      -0.45445495 
H       0.55885463       2.07513780      -2.74298793 
H       0.69189066       0.51801602      -3.59551799 
H      -0.43995612       0.25738776       0.48608748 
H      -0.25996611      -0.62013004      -1.74853282 
H       3.66445830       1.70245155      -1.46977788 
