12
 energy: -21.604377546978 gnorm: 0.000939603427 xtb: 6.2.3 (830e466)
C         1.02515194760159    1.20730574860951   -2.83418952671000
C         0.13149051510839    0.88140592299918   -1.63900222898049
C         1.20161600825920    0.90787122002168   -0.54544394248307
O         2.23873590386210    0.54261814632144   -2.57229499173766
O         1.34440863392800    2.22118373672129   -0.09363564884585
O         2.36583544876344    0.42212431543605   -1.14430117593456
H         2.18779362997572    2.30661576517056    0.36447738580678
H         0.65706213452444    0.81581967612811   -3.78270619077741
H         1.18558349915664    2.29169040882265   -2.90539779119805
H         0.98927529726471    0.23041707769592    0.29729047687293
H        -0.30180019384502   -0.11351054521617   -1.72273871729652
H        -0.63586282459919    1.62657852728977   -1.45775764871611
12
Properties=species:S:1:pos:R:3 6.2.3=T gnorm:=T 0.000389092614=T pbc="F F F" energy:=T -21.565078500572=T xtb:=T 830e466=T
C       1.97149810       2.00741780      -2.49675335 
C      -0.69286181      -0.02569815      -1.17537837 
C       0.28078420       0.30434011      -0.35000437 
O       1.84336466       0.69112555      -2.04643926 
O       3.13943410       2.63017345      -2.09036181 
O       1.55382108       0.68058199      -0.64991151 
H       3.20828059       2.56738925      -1.12865574 
H       2.01432265       1.91228273      -3.58585746 
H       1.08172425       2.59518707      -2.20189377 
H       0.19296150       0.32184652       0.72783785 
H      -0.54746206      -0.03854709      -2.24080034 
H      -1.65657727      -0.30597924      -0.79748186 
