12
 energy: -21.539821820384 gnorm: 0.000235860881 xtb: 6.2.3 (830e466)
C         1.99644645045442    1.48589285415071   -3.00221470722458
C         0.10986776109679    0.28713989882090    0.37783267418664
C         1.01703059745855   -0.56643146940670    0.05731803877157
O         0.63812103754666    1.84314750254297   -2.99067595329378
O         0.35594289523237    2.67855766077532   -1.87489318543829
O         1.85234671030131   -1.31853279224383   -0.24918212939752
H        -0.02130847847859    3.47556836533982   -2.27221718005377
H         2.64165390483064    2.36351311866257   -3.10965963840376
H         2.08872859894719    0.84473225965432   -3.87660422893836
H         2.27356612923632    0.93095649071394   -2.10280168597795
H        -0.54439182971339    0.13504589379378    1.21181853782638
H        -0.01870377691341    1.18051021719720   -0.20462054205416
12
Properties=species:S:1:pos:R:3 0.000500510437=T 6.2.3=T gnorm:=T pbc="F F F" -21.559749084759=T energy:=T xtb:=T 830e466=T
C       1.95626027       1.38639318      -2.53366156 
C       0.41300557       0.04644174       0.39908612 
C       0.82982806       0.22133655      -0.84150936 
O       0.84618161       1.88475055      -3.21541819 
O       0.65627048       3.25932548      -2.94904410 
O       1.73450211       1.19633702      -1.17114043 
H       0.00608118       3.28941791      -2.22987784 
H       2.80996763       2.06941106      -2.61003422 
H       2.16687602       0.44011481      -3.05314600 
H       0.48393489      -0.38806387      -1.66926592 
H      -0.28176598      -0.73497948       0.63876577 
H       0.76815817       0.66961505       1.19934574 
