12
 energy: -21.633463712112 gnorm: 0.000849038903 xtb: 6.2.3 (830e466)
C         1.78009717258489    2.36817696970310   -1.48433821896998
C         0.42070944301808    0.49522229336297   -0.86969315791810
C         1.01075321047972   -0.58476566074766   -1.74570212928785
O         1.29281533413914    1.52341103777507   -0.47046945404414
O         0.79881922678907    3.15165807449099   -2.08932641826029
O         2.12594501030180   -0.63038005616449   -2.17532599538014
H         0.29042948309724    2.62849006652626   -2.71920450910359
H         2.44792695339588    3.05815326748879   -0.96275583445263
H         2.34719817564059    1.79338104526079   -2.23201597878085
H         0.26674489593293   -1.37698965445688   -1.97186604382582
H        -0.47693265995075    0.89027465175956   -1.37472712457966
H         0.08483375457147    0.02342796500135    0.05982486460293
12
Properties=species:S:1:pos:R:3 6.2.3=T gnorm:=T pbc="F F F" energy:=T 0.000274852218=T -21.645181554800=T xtb:=T 830e466=T
C       1.92312812       2.13855785      -1.88687641 
C       0.18300691       0.45268713      -0.99974592 
C       1.53363850       0.69584422      -1.63504070 
O      -0.02829264      -0.90471085      -0.75963199 
O       0.91465540       3.08101270      -1.64373327 
O       2.26289975      -0.23054574      -1.89952986 
H       0.23516583       3.01856200      -2.32381661 
H       2.73603941       2.37844523      -1.19205868 
H       2.33133236       2.21974076      -2.90399274 
H       0.76990232      -1.37126433      -1.06256673 
H      -0.60357265       0.83697725      -1.66580677 
H       0.13143668       1.02475378      -0.06280030 
