12
 energy: -21.525525583517 gnorm: 0.000767221483 xtb: 6.2.3 (830e466)
C         2.28759410062828    1.52599976768912   -0.78612363421818
C         1.77969630586301    0.34225204705815   -0.45103485505743
C         1.12012896322624   -0.53261865784021   -1.41980827241937
O        -0.61847906261559    2.61333956630053   -1.97813027570255
O         0.10888210351770    2.38144337965791   -3.17736908372928
O         0.81577028137984   -0.23326040029708   -2.55124471808393
H         0.34834029960939    1.43243473860377   -3.09706343668915
H         2.77393573283629    2.16169433592445   -0.06595557062234
H         2.22646811061488    1.89326123734511   -1.79759935888477
H         0.90517840003256   -1.54793109937748   -1.03917159825816
H        -1.20353401090084    3.33833475770846   -2.23162455131120
H         1.84542877580562   -0.03504967277389    0.55942535497927
12
Properties=species:S:1:pos:R:3 6.2.3=T gnorm:=T pbc="F F F" -21.632396132538=T energy:=T xtb:=T 0.000931480159=T 830e466=T
C       1.81957886       1.82968843      -1.67657775 
C       0.77935212       0.88301340      -0.99325968 
C       1.05415962      -0.56696322      -1.31334549 
O      -0.53636185       1.18217672      -1.38358079 
O       1.19313363       2.95015484      -2.24172961 
O       2.14386183      -1.06111232      -1.35544852 
H       0.68303455       2.66623227      -3.00956662 
H       2.51940355       2.21313189      -0.93371478 
H       2.38591529       1.26695811      -2.42785053 
H       0.13067657      -1.14059025      -1.50811170 
H      -0.65743348       2.13831343      -1.29541604 
H       0.87408930       0.97889669       0.10290151 
