12
 energy: -21.567414692152 gnorm: 0.000203336590 xtb: 6.2.3 (830e466)
C         1.71879971267891    1.08011415276125   -2.68752422225997
C         1.53373806839934    1.17797196563728   -1.16879385431269
C         0.64884963945620    0.04784971469747   -0.67990220355620
O         1.07189981904766    2.44206842498956   -0.74595792999193
O        -0.20626162520563    2.73176160420271   -1.27212708331656
O        -0.38700773938035    0.19017134733663   -0.09494961441146
H        -0.82047644259237    2.33023058216902   -0.63344140279829
H         2.10803690046084    0.10392225219825   -2.96024834519513
H         2.41027952936093    1.85087007524181   -3.01541409725254
H         1.04429613562133   -0.95334317352029   -0.93477201554613
H         0.76260780409397    1.24161842301530   -3.17970884219589
H         2.50425819805917    1.09686463127101   -0.66296038916321
12
Properties=species:S:1:pos:R:3 6.2.3=T gnorm:=T pbc="F F F" -21.524981069044=T energy:=T xtb:=T 0.000433015046=T 830e466=T
C       1.70999976       1.20283582      -2.82337801 
C       1.49852276       1.25165334      -1.32107842 
C       0.29452310       0.40348507      -0.80832883 
O       1.12336736       2.57359349      -0.95632498 
O       0.26623751       2.41967545       0.14253510 
O      -0.57784710       1.36020863      -0.24628253 
H      -0.25082569      -0.08742947      -1.61470589 
H       2.01050333       0.20198070      -3.11909112 
H       2.48926554       1.90677957      -3.10144663 
H       0.61862294      -0.32962971      -0.06178919 
H       0.79358694       1.47721476      -3.33921766 
H       2.41306355       0.95973232      -0.78669183 
