12
 energy: -21.568046905129 gnorm: 0.000843108892 xtb: 6.2.3 (830e466)
C         1.96862214156001    1.24611500390972   -2.43188290141956
C         1.36681056373768    1.19821797597725   -1.02556216785824
C         0.78786042357297   -0.17540185632575   -0.72927326343903
O         0.43679072069060    2.22316581684354   -0.77132568580427
O        -0.71050890201592    2.06661748265743   -1.61180675509706
O         1.34689316527653   -1.20801651955028   -0.95652007311697
H        -1.05613406934676    2.96691678653551   -1.65245695366903
H         2.65314795212921    0.41186732796322   -2.55100917849046
H         2.49922400195139    2.18194684513770   -2.58578052962640
H        -0.21889879972040   -0.13467943153061   -0.27704079449023
H         1.17273923843598    1.16045483361317   -3.16814019882309
H         2.14245356372871    1.40280573476910   -0.27501149816567
12
Properties=species:S:1:pos:R:3 6.2.3=T gnorm:=T pbc="F F F" -21.648484915388=T energy:=T xtb:=T 830e466=T 0.000422822308=T
C       1.95153335       1.19684159      -2.45923031 
C       0.91096652       1.27668041      -1.35123565 
C       0.37819060      -0.10883526      -0.95951500 
O       1.41418566       1.82234415      -0.15945487 
O      -0.17049459       2.04399604      -1.82508140 
O       0.61308589      -1.12841409      -1.53259907 
H      -0.84515700       2.10873645      -1.13727512 
H       2.83589258       0.68658857      -2.08864641 
H       2.20917768       2.19932151      -2.79155908 
H      -0.29191510      -0.06145797      -0.07922153 
H       1.53880097       0.64061608      -3.29485464 
H       1.84473345       2.66359252      -0.35713693 
