12
 energy: -21.567259462903 gnorm: 0.000503042169 xtb: 6.2.3 (830e466)
C         1.47588111973144    1.50223886840890   -2.11620725275923
C         0.59337960012969    0.49952691148083   -1.36345297631617
C         1.35466380226162   -0.71414804988485   -0.92861311451978
O         0.81238154205161    2.70338404929277   -2.39365639392779
O         0.57134521440542    3.40256947552768   -1.16875548735549
O         0.97057206170992   -1.84423909127576   -1.02212805565369
H         0.17598425453240    4.22614853038129   -1.48213110429922
H         2.39221933369561    1.70191000285087   -1.54499763373886
H         1.73814198538048    1.13081509151325   -3.10981361386348
H         2.34105181198920   -0.47967539680703   -0.47969179130090
H        -0.26814691452362    0.21147808279215   -1.96748055430726
H         0.23181618863625    0.99979152571987   -0.45868202195812
12
Properties=species:S:1:pos:R:3 6.2.3=T gnorm:=T pbc="F F F" -21.636260218069=T energy:=T 0.000845012265=T xtb:=T 830e466=T
C       1.26522224       1.31814831      -2.44967156 
C       0.76998454       0.99244052      -1.02219872 
C       1.58383705      -0.13824226      -0.44053190 
O       0.54070241       2.39276196      -2.98977501 
O       0.86285372       2.11955293      -0.19336373 
O       1.64653091      -1.23844210      -0.91070446 
H       0.71686084       2.90158089      -0.74455277 
H       2.30346671       1.65556795      -2.40010773 
H       1.20677577       0.41957015      -3.07288470 
H       2.13232088       0.15469654       0.47178063 
H      -0.35760001       2.10625729      -3.19263035 
H      -0.28166507       0.65590782      -1.09096969 
