10
 energy: -20.522859891972 gnorm: 0.000732357407 xtb: 6.2.3 (830e466)
C         1.33556007958056    2.19205946203448   -0.95052731911179
C         1.53476583609405    1.05848122437688   -0.25442176127717
C         0.70733302673785   -0.12204812695406   -0.43137025811301
O         0.36069643916407    2.29861781097808   -1.84737021898322
O         0.34511910760635    3.57886953345707   -2.45671836450781
O        -0.22952229779652   -0.21800616834034   -1.18736775621021
H        -0.41310815098495    3.51685335604919   -3.05565751751902
H         1.95392558825498    3.07308001530284   -0.81942838962532
H         1.00783085913363   -0.97210182551322    0.21295185540918
H         2.33810951220995    1.02329471860909    0.46111972993838
10
Properties=species:S:1:pos:R:3 -20.589491126976=T 6.2.3=T gnorm:=T pbc="F F F" 0.000373721253=T energy:=T xtb:=T 830e466=T
C       0.38028255       1.27548377      -1.82730179 
C       0.83895258       0.92343180      -0.65429012 
C       0.85106366      -0.44893830      -0.17492407 
O      -0.03966802       1.54107885      -2.86641962 
O       1.29617618       3.84478653      -1.37083663 
O       0.45944633      -1.42588109      -0.76073877 
H       0.62107094       4.50880179      -1.52810565 
H       2.02100715       4.03820570      -1.96993456 
H       1.27932532      -0.52379366       0.84109200 
H       1.23305330       1.69592461      -0.01733078 
