12
 energy: -21.561957075570 gnorm: 0.000997244991 xtb: 6.2.3 (830e466)
C         1.78748832254573    1.35416259366142   -2.41891749068378
C        -0.32428038569980    0.04827856904698   -1.02048547979214
C         0.95337436311563   -0.04535072540191   -0.69832366452446
O         1.03180282344780    2.50580697999100   -2.21175317037441
O         1.80243933707093    3.52161150520912   -1.60006416314506
O         2.01712652354442    0.59573988890623   -1.26804674431259
H         1.56535715502083    3.48302401088285   -0.66072547922132
H         2.78080873305358    1.60149023998661   -2.81109885879829
H         1.20559832447675    0.79020169320083   -3.16136555710515
H         1.31134753885351   -0.67744139089494    0.10257553825587
H        -1.05416794159021   -0.53031596114859   -0.48674960298970
H        -0.68758479383915    0.69259259656014   -1.80094532730898
12
Properties=species:S:1:pos:R:3 6.2.3=T gnorm:=T 0.000969577246=T pbc="F F F" energy:=T xtb:=T 830e466=T -21.563610336628=T
C       1.71948641       1.30103978      -2.29323450 
C      -0.18986706       0.43833709      -0.90983864 
C       1.04643502       0.31853178      -1.36469615 
O       1.05422784       2.52250989      -2.44078079 
O       1.14531978       3.27847146      -1.23357577 
O       1.88553271      -0.71603369      -1.06963251 
H       1.21693887       4.18588604      -1.55664949 
H       2.75260065       1.45063299      -1.95199160 
H       1.74068009       0.89788822      -3.31129400 
H       1.43640391      -1.33070797      -0.47633248 
H      -0.62453516      -0.28692972      -0.24320165 
H      -0.79391307       1.28017413      -1.18467242 
