8
 energy: -14.331168404096 gnorm: 0.000448842223 xtb: 6.2.3 (830e466)
C        -0.08062020951926    2.15106959290263   -2.21119706284526
C        -0.43241738811489    0.94594921481370   -1.80204946396464
O         1.08903110521478    2.71822088888066   -1.80780672560079
O         1.24384255887029    4.00973997691049   -2.38267865473889
H         2.10903519178270    4.28314405345115   -2.04949489182881
H        -0.67193535336900    2.76457477538721   -2.87673473703639
H         0.19073690533132    0.37485425414078   -1.13923861490639
H        -1.35597281019592    0.51004724351337   -2.12828984907882
8
Properties=species:S:1:pos:R:3 6.2.3=T gnorm:=T pbc="F F F" energy:=T 0.000708194087=T -14.392359238055=T 830e466=T xtb:=T
C       0.94202753       1.23870961      -1.88034384 
C      -0.27534673       0.96593335      -1.56602428 
O       2.03926288       1.50400688      -2.16716306 
O      -0.02440983       4.04604988      -2.50522820 
H       0.72575873       4.36696733      -2.00069381 
H       0.28089321       3.91232681      -3.40521555 
H      -0.58579294      -0.02322215      -1.29882952 
H      -1.01069285       1.74682828      -1.57399174 
