5
 energy: -9.318186748929 gnorm: 0.000250110409 xtb: 6.2.3 (830e466)
C         0.41754720421875    0.31407387009858    0.07884778165500
C         1.45662861927670   -0.44578054667198    0.01908464464367
O         2.39307791820583   -1.13154754152465   -0.03387745658924
H        -0.48273271148358    0.06508597400863   -0.44659260820071
H         0.42466896978230    1.21966824408942    0.65192763849128
5
Properties=species:S:1:pos:R:3 0.000290811654=T gnorm:=T pbc="F F F" energy:=T -9.278696665738=T 6.2.3=T xtb:=T 830e466=T
C       0.74248962       0.96138938       0.61925507 
C       1.00198428      -0.07002085       0.07231012 
O       1.32945790      -1.19287565      -0.50532459 
H       0.59517478      -1.54032005      -1.02379699 
H       0.54008343       1.86332717       1.10694639 
