16
 energy: -21.762292688203 gnorm: 0.000848280871 xtb: 6.2.3 (830e466)
C        -0.77112542866862   -1.18181315212767    0.01197947194368
C         1.99668820886523    0.27155786532279   -0.43467881281403
C        -0.36109627818720    0.17669518152425    0.48157099601025
C         0.80259619858089    0.78931872756226    0.29769136900196
O        -1.38668034357655    0.78733970751592    1.17597349563179
O        -3.74911918247946   -0.84502204143563    1.70581321198105
H        -1.09867975460970    1.65206706588379    1.49059757042814
H        -4.45683965814865   -0.19912692781230    1.66867770753750
H        -2.93112993847360   -0.36277898888077    1.52785624568221
H         0.93002632665044    1.78410301741296    0.71277616737155
H         0.04420103418419   -1.69549071424867   -0.48342426072660
H        -1.60943756026839   -1.09298372031187   -0.67752220350711
H        -1.10593708428561   -1.77460992344246    0.86171021310535
H         2.23554618183345    0.93129499129431   -1.26927622083318
H         1.83788470402447   -0.72909205396008   -0.82251608728523
H         2.86180257455206    0.25325096570610    0.22836113648001
16
Properties=species:S:1:pos:R:3 6.2.3=T gnorm:=T 0.000856637957=T pbc="F F F" -21.652524288601=T energy:=T xtb:=T 830e466=T
C      -0.63082013      -1.54102288      -0.20286248 
C       1.89141346       0.36091673      -0.37717136 
C      -0.37178019      -0.27852488       0.55238015 
C       0.69939199       0.50790726       0.50768993 
O      -1.39364473       0.16786217       1.36701668 
O      -2.19774534      -0.90002909       1.87816460 
H      -3.20659077       1.95363293       0.99944557 
H      -3.96832211       2.10679803       1.05664187 
H      -2.77316920      -0.42764600       2.49319706 
H       0.69975232       1.38182317       1.14462022 
H       0.14662402      -1.72656272      -0.93473060 
H      -1.59415611      -1.46977721      -0.70621498 
H      -0.68003626      -2.38051677       0.48975597 
H       1.97620448       1.22488119      -1.03681865 
H       1.84619333      -0.53654458      -0.98570852 
H       2.79538525       0.32151266       0.23018453 
