10
 energy: -15.407759119253 gnorm: 0.000817816244 xtb: 6.2.3 (830e466)
C        -2.08338654893509    0.42653423692938   -0.38580469496356
C         2.15914573755384   -0.32588279223007    0.39938063343039
O        -1.13942472023817   -0.61228924441379   -0.33772720221670
O         1.29562554540021    0.06090113324425    1.13033008736398
H        -0.49029479447605   -0.40352354873789    0.35070009529562
H        -1.61375098804209    1.38828356455063   -0.62207369995715
H        -2.79095968562787    0.17574019962592   -1.17553982169843
H        -2.62730300593936    0.52291594242945    0.56060898789174
H         3.22653631039453   -0.13495153784258    0.59379611430455
H         1.94490214991004   -0.89681795355590   -0.51738049945022
10
Properties=species:S:1:pos:R:3 0.000246566335=T -15.380939734333=T 6.2.3=T gnorm:=T pbc="F F F" energy:=T xtb:=T 830e466=T
C      -1.84933168       0.58106108      -0.34198878 
C       1.42278766      -0.54456318       0.34832078 
O      -0.72721337      -0.24919063      -0.43094740 
O       0.35239468       0.35474494       0.30470065 
H       1.14701029      -1.46972095       0.86384229 
H      -1.65210388       1.56563590      -0.77641768 
H      -2.61289298       0.06341474      -0.92044928 
H      -2.17860711       0.69849000       0.69507385 
H       2.19276807      -0.01847254       0.91043591 
H       1.78627833      -0.78048934      -0.65628035 
