11
 energy: -12.882718060148 gnorm: 0.000633044183 xtb: 6.2.3 (830e466)
C         1.19453362013762    0.08406895951843    1.86227806312082
C        -2.47340101224398   -0.01619452679676    1.20283162502466
C        -1.12751613311615   -0.20325135348490    1.80698644553359
N        -0.10104878829039    0.27284996475184    1.26592208327822
H        -1.10618017140308   -0.78183641175726    2.74592948285865
H         1.93240796973693    0.56225225479200    1.21976007323727
H         1.24443547165063    0.53411187483109    2.85766183119451
H         1.44049037254740   -0.97711820061432    1.96028028166090
H        -3.12539227503717    0.50042808162932    1.90625862786107
H        -2.39388811945699    0.56113514379142    0.28659578563429
H        -2.91914093452483   -0.98654578666086    0.98709570059602
11
Properties=species:S:1:pos:R:3 -12.879332830007=T gnorm:=T pbc="F F F" 0.000608060011=T energy:=T xtb:=T 6.2.3=T 830e466=T
C       0.70808861       0.05700250       1.73690942 
C      -1.58353009      -0.14883548       0.84427326 
C      -1.69374815       0.03801827       2.30679611 
N      -0.60591767       0.62243645       1.56686135 
H      -1.49192054      -0.81699894       2.94551579 
H       1.29850960       0.27514328       0.84665798 
H       1.18230633       0.53231186       2.59579849 
H       0.69641195      -1.03150913       1.89594571 
H      -2.41467622       0.73825021       2.70477395 
H      -2.22411412       0.41653238       0.18193832 
H      -1.30610970      -1.13245140       0.47612962 
