11
 energy: -17.524740003298 gnorm: 0.000626943175 xtb: 6.2.3 (830e466)
C         0.71909040096385    0.21600096789648    1.50061752670884
C         0.22211937580094   -3.47595839833400    2.99835881077041
C         0.32823727626832    1.19051505746498    0.69614031284349
O         1.44780453744092   -0.84443265200661    1.06729684578302
O         1.13628915020224   -2.73420342467459    3.20637185593691
H         1.60681123535654   -1.45548256256923    1.80259984725410
H         0.46868136533057    0.22360794461794    2.55680732963329
H        -0.36280796855863   -3.44755706761852    2.06637116171332
H        -0.09813549609573   -4.23640776617322    3.72494471645993
H        -0.24457486565245    2.01727256493056    1.06973721575547
H         0.57859498894337    1.18164533646651   -0.34904562285972
11
Properties=species:S:1:pos:R:3 0.000615312378=T -17.539143067620=T 6.2.3=T gnorm:=T pbc="F F F" energy:=T xtb:=T 830e466=T
C       0.34845279      -0.06919811       2.02690603 
C       0.01975523      -2.10521401       3.10874617 
C       0.16241274       0.73442332       0.99775580 
O      -0.21644771      -1.32958935       2.05641598 
O       0.68326636      -1.83812190       4.06471697 
H       2.42498123      -3.14414120       0.71594865 
H       0.93568001       0.18099443       2.90115564 
H       1.77625637      -2.87880361       0.37856912 
H      -0.50539655      -3.06263004       2.95720020 
H       0.60332510       1.71282794       0.98098712 
H      -0.43017555       0.43445253       0.15179833 
