10
 energy: -11.549257541736 gnorm: 0.000180603922 xtb: 6.2.3 (830e466)
C        -1.78237993695924   -0.69623143120700   -0.42965937747287
C        -1.83555058180267    0.74495841666279   -0.24011632999716
C        -1.00311071358690   -1.54758507802736    0.22837378870787
C        -1.10593438176642    1.45296138585555    0.61513769354991
H        -2.45516321855630   -1.08121827672021   -1.18610881654684
H        -2.54776845334398    1.26142367741965   -0.87184497200778
H        -0.31530773046131   -1.22774596935301    0.99214965828742
H        -1.02637357967803   -2.60440245821354    0.02466751418053
H        -1.20918886015093    2.52172838952532    0.69253391658281
H        -0.38122254369421    0.99883134405781    1.26881692471610
10
Properties=species:S:1:pos:R:3 6.2.3=T gnorm:=T pbc="F F F" energy:=T -11.463528598211=T xtb:=T 830e466=T 0.000635439250=T
C      -0.83496006      -0.69258034       0.54357427 
C      -0.87084376       0.55566923       0.70485798 
C      -0.78983538      -1.98893964       0.38235751 
C      -0.91198439       1.85170768       0.86941899 
H      -3.38216450      -0.19462628      -2.02045393 
H      -3.47307062       0.56643706      -1.89304416 
H      -0.12276553      -2.60655906       0.96292927 
H      -1.41734563      -2.49135364      -0.33681992 
H      -1.57725096       2.47332948       0.29147190 
H      -0.28177917       2.34963551       1.58965809 
