10
 energy: -11.549257541736 gnorm: 0.000180603922 xtb: 6.2.3 (830e466)
C        -1.78237993695924   -0.69623143120700   -0.42965937747287
C        -1.83555058180267    0.74495841666279   -0.24011632999716
C        -1.00311071358690   -1.54758507802736    0.22837378870787
C        -1.10593438176642    1.45296138585555    0.61513769354991
H        -2.45516321855630   -1.08121827672021   -1.18610881654684
H        -2.54776845334398    1.26142367741965   -0.87184497200778
H        -0.31530773046131   -1.22774596935301    0.99214965828742
H        -1.02637357967803   -2.60440245821354    0.02466751418053
H        -1.20918886015093    2.52172838952532    0.69253391658281
H        -0.38122254369421    0.99883134405781    1.26881692471610
10
Properties=species:S:1:pos:R:3 6.2.3=T gnorm:=T pbc="F F F" energy:=T -11.428738030713=T xtb:=T 830e466=T 0.000855164291=T
C      -2.17460878      -0.78327420      -0.73297774 
C      -1.72584979       0.46500878      -0.74971511 
C      -0.84804820      -1.25282224      -0.07849144 
C      -0.39730512      -0.00505775      -0.09509006 
H      -3.07117607      -1.28752383      -1.03499745 
H      -2.09695765       1.41797842      -1.07156178 
H      -1.61701906       1.24264124       1.90852774 
H      -0.47658157      -2.20585283       0.24257385 
H      -1.75510423       1.73328094       2.50024642 
H       0.50065048       0.49834144       0.20543558 
