9
 energy: -18.438051438541 gnorm: 0.000167786893 xtb: 6.2.3 (830e466)
C         2.15057934918855   -1.90750146170589    1.06445728263766
C         0.67458820619809   -2.13630341809726    0.98125649176136
O        -0.07888898998344   -1.08407362535384    0.57218303238413
O         0.64536599495688    0.09767114785605    0.28166241812394
O         0.08730098033800   -3.14585278577337    1.23573991895332
H        -0.06262640370455    0.71064350357630    0.03493410578176
H         2.63663448443897   -2.81681155785546    1.40183407677553
H         2.52790376451608   -1.61566356928590    0.08620784875870
H         2.35269261405143   -1.09044823336064    1.75444482482361
9
Properties=species:S:1:pos:R:3 0.000590814014=T 6.2.3=T gnorm:=T pbc="F F F" energy:=T xtb:=T 830e466=T -18.398715813724=T
C       1.85696848      -1.34270022       1.23153523 
C       1.12369254      -2.57273062       0.74945700 
O       1.03713557      -0.21221054       1.37378995 
O       0.51958616       0.19357178       0.12511633 
O      -0.02206274      -2.59537860       0.40353842 
H      -0.30232877      -0.31794022       0.02903909 
H       2.69547057      -1.14933124       0.54453261 
H       1.76567547      -3.47381984       0.72254626 
H       2.25941272      -1.51780051       2.23316512 
