13
 energy: -16.669036738276 gnorm: 0.000552439830 xtb: 6.2.3 (830e466)
C         1.84338364383541    0.14325478612697    3.58698318521326
C         1.39767678228170    1.36633751886817   -0.09296188875623
C         1.72863598964088    0.98672443523483    2.34936059271352
C         1.50194886443743    0.52224930376300    1.13227139032516
O         1.85872927507198   -1.24374332203854    3.35833113674871
H         2.57507089318738   -1.44250203916309    2.74563329376676
H         2.74420558572431    0.45059916994492    4.14468335229429
H         0.97866118837429    0.32423898784500    4.23472839483256
H         1.84747618280592    2.04782893362406    2.52400192241849
H         1.36767475363897   -0.54078276570274    0.97694438252414
H         0.42302775208743    1.22913828828959   -0.56025431142705
H         2.15501264297557    1.07227798539865   -0.81977646298581
H         1.52898644593872    2.41902871780918    0.14506501233219
13
Properties=species:S:1:pos:R:3 6.2.3=T gnorm:=T -16.617105656521=T pbc="F F F" energy:=T xtb:=T 830e466=T 0.000406175026=T
C       2.36623796       1.21941430       3.48432303 
C       1.42260904       1.58312797      -0.02448150 
C       2.16084766       0.91733518       2.24156807 
C       1.94475093       0.61852443       0.99773994 
O       0.83330425      -1.91555886       3.10600020 
H       1.73849671      -1.77217875       3.39031311 
H       3.31747453       1.59515112       3.82747102 
H       1.59843755       1.11038402       4.23516648 
H       0.54587482      -1.09676649       2.69408945 
H       2.14878492      -0.38306181       0.63811077 
H       0.47419599       1.22559870      -0.42519385 
H       2.12629951       1.66537556      -0.85211338 
H       1.27317613       2.56730463       0.41201665 
