20
 energy: -28.383134918718 gnorm: 0.000362971787 xtb: 6.2.3 (830e466)
C        -1.81366617497000    0.57912746975878    0.04944088579796
C         0.42539333120021   -0.25594672471212    0.02053229520034
C         0.99893081718915    1.00918105386343   -0.03886230746963
C         1.25351438519669   -1.37981782619025    0.04077199424372
C         2.37831257405619    1.13887119339016   -0.07394371969026
C         2.62431294036536   -1.23713335538120    0.00436139150930
C         3.19567923026982    0.02518438555739   -0.05229187782473
C        -3.20234127640234    0.03201030437758    0.17258177492197
C        -4.23878450631933    0.47200518862262   -0.51387533385329
O        -0.91107250282776   -0.50900518552278    0.06481328695937
H        -1.61196439758823    1.24433941443260    0.90558767829331
H        -1.70701250753093    1.15976128398260   -0.87714358257378
H         0.38748538948090    1.89806364188108   -0.05855372391059
H         0.79181487168197   -2.35372003454306    0.08542221839946
H         2.81154018196797    2.12747657694618   -0.11938499527592
H         3.25256919029016   -2.11545776193502    0.02031644980654
H         4.26888974967328    0.13672817749552   -0.08056903052102
H        -3.30005580481879   -0.77055370264497    0.88942484728450
H        -5.22448333564924    0.06287369197174   -0.37617611707446
H        -4.14761215526500    1.26660220864929   -1.23614213422277
20
Properties=species:S:1:pos:R:3 6.2.3=T gnorm:=T pbc="F F F" energy:=T 0.000954321892=T xtb:=T 830e466=T -28.394743824211=T
C      -1.61286583       0.48981438       1.01439197 
C       2.30695474      -0.14038909      -0.63172666 
C       1.62844369       1.05035899      -0.87033750 
C       1.71299218      -1.11842117       0.15529090 
C       0.37508940       1.24943632      -0.32813814 
C       0.45747031      -0.90572120       0.69483650 
C      -0.22621671       0.27942156       0.46455601 
C      -2.61847390      -0.07563917       0.05486604 
C      -3.53032941       0.63638303      -0.57752969 
O       3.54193651      -0.30343866      -1.18347855 
H      -1.70684150      -0.02233791       1.97596348 
H      -1.80208629       1.55387638       1.16347611 
H       2.10020472       1.80261792      -1.48228014 
H       2.23575274      -2.04727476       0.34562576 
H      -0.14591426       2.17554165      -0.52217929 
H       0.00799560      -1.67467136       1.30712826 
H       3.89464276      -1.16817370      -0.94151571 
H      -2.53703064      -1.14147071      -0.11702573 
H      -4.22537150       0.19119195      -1.26910062 
H      -3.62490259       1.69948555      -0.42651298 
