[Molden Format]
[Geometries] (XYZ)
9

C       -2.479146      -0.029640       1.052483
C       -1.220875      -0.085413       1.864321
C       -0.007585      -0.023493       1.348331
H       -1.345813      -0.182474       2.934657
H       -3.358593      -0.097733       1.686805
H       -2.529037       0.902143       0.490245
H       -2.506001      -0.848344       0.334276
H        0.150933       0.073123       0.286190
H        0.877508      -0.066480       1.959593
9

C       -2.401317      -0.351126       0.980226
C       -1.047225      -0.465580       2.090614
C        0.129502      -0.418144       1.494394
H       -1.346726      -0.495383       3.123563
H       -3.250754      -0.469410       1.653277
H       -2.459640       0.543052       0.369522
H       -2.430615      -1.146619       0.236353
H       -0.015919      -0.245523       0.443498
H        1.179673      -0.407808       1.722356
9

C       -2.297530      -0.310771       1.026316
C       -0.934204      -0.459973       2.159879
C        0.238870      -0.408415       1.572275
H       -1.424175      -0.403133       3.112377
H       -3.098045      -0.440120       1.753228
H       -2.374178       0.579261       0.413668
H       -2.343241      -1.093101       0.272159
H       -0.134357      -0.169381       0.536353
H        1.294020      -0.376672       1.735663
9

C       -2.471774      -0.202638       0.830290
C       -0.644993      -0.473589       2.380534
C        0.439688      -0.360360       1.754902
H       -1.355443      -0.341029       3.160241
H       -3.179945      -0.312859       1.643870
H       -2.610979       0.692304       0.230161
H       -2.594072      -1.026311       0.122254
H       -0.630356      -0.111257       0.567212
H        1.494453      -0.270949       1.843016
9

C       -2.585068      -0.096986       0.623461
C       -0.426311      -0.411230       2.624460
C        0.566113      -0.252577       1.913887
H       -1.226183      -0.341292       3.313510
H       -3.288658      -0.162657       1.443212
H       -2.728997       0.796512       0.020162
H       -2.710251      -0.948041      -0.047399
H       -1.119855      -0.071322       0.664262
H        1.606840      -0.188580       1.719427
9

C       -2.692557      -0.048801       0.435476
C       -0.261703      -0.335254       2.783637
C        0.722019      -0.177485       2.082773
H       -1.107328      -0.361947       3.411346
H       -3.426691      -0.103630       1.227556
H       -2.828902       0.859526      -0.144899
H       -2.800512      -0.900209      -0.229650
H       -1.540200      -0.058321       0.727628
H        1.638743      -0.200697       1.559260
9

C       -2.830584       0.029003       0.349116
C       -0.061787      -0.163939       2.883202
C        0.931542      -0.088702       2.225032
H       -0.934700      -0.226194       3.463140
H       -3.564551      -0.049184       1.140792
H       -2.974522       0.960343      -0.182955
H       -2.952137      -0.799836      -0.336060
H       -1.834227       0.004844       0.772489
H        1.802356      -0.024645       1.642143
[GEOCONV]
energy
0.0
25.9850069805
42.2772032567
168.124058588
82.8244962149
42.5831760792
35.8496992752
max-force
3.48755259566e-05
0.0138985110909
0.00931522168474
0.0126063895751
0.0102606148379
0.00856079779695
3.64636918998e-05
max-step
1000.0
1000.0
1000.0
1000.0
1000.0
1000.0
1000.0
