[Molden Format]
[Geometries] (XYZ)
9

C       -2.479146      -0.029640       1.052483
C       -1.220875      -0.085413       1.864321
C       -0.007585      -0.023493       1.348331
H       -1.345813      -0.182474       2.934657
H       -3.358593      -0.097733       1.686805
H       -2.529037       0.902143       0.490245
H       -2.506001      -0.848344       0.334276
H        0.150933       0.073123       0.286190
H        0.877508      -0.066480       1.959593
9

C       -2.437796       0.004280       0.954648
C       -1.098370      -0.109263       2.055764
C        0.080378      -0.058933       1.460859
H       -1.392625      -0.139296       3.091472
H       -3.290875      -0.109989       1.623536
H       -2.492587       0.904760       0.351789
H       -2.465240      -0.793669       0.212942
H       -0.050406       0.108061       0.412517
H        1.130694      -0.046329       1.690124
9

C       -2.312943       0.006980       1.018876
C       -1.027518      -0.139996       2.087941
C        0.141145      -0.055441       1.517028
H       -1.557218      -0.065736       3.018555
H       -3.120899      -0.101913       1.737512
H       -2.390452       0.931191       0.460512
H       -2.349957      -0.809585       0.305804
H       -0.231414       0.165913       0.501976
H        1.189349      -0.065569       1.712264
9

C       -2.544951       0.050477       0.835818
C       -0.722956      -0.175265       2.275379
C        0.405153      -0.090956       1.713505
H       -1.441978      -0.052632       3.043802
H       -3.275248      -0.048997       1.617286
H       -2.675803       0.977517       0.273113
H       -2.630965      -0.774343       0.126242
H       -0.717517       0.145353       0.575525
H        1.471001      -0.018597       1.849885
9

C       -2.633965       0.078253       0.600948
C       -0.464460      -0.226560       2.572687
C        0.540516      -0.076240       1.881005
H       -1.279401      -0.152097       3.249598
H       -3.342938       0.011776       1.408318
H       -2.772058       0.985820       0.013868
H       -2.731101      -0.777538      -0.066395
H       -1.199247       0.103714       0.662280
H        1.585490      -0.014277       1.660024
9

C       -2.729218       0.066431       0.430190
C       -0.258767      -0.211928       2.755178
C        0.739202      -0.071124       2.089274
H       -1.125189      -0.235050       3.356124
H       -3.460828       0.009997       1.217970
H       -2.858526       0.986905      -0.135636
H       -2.833796      -0.789102      -0.232265
H       -1.598107       0.049698       0.740622
H        1.650137      -0.076810       1.544552
9

C       -2.830584       0.029003       0.349116
C       -0.061787      -0.163939       2.883202
C        0.931542      -0.088702       2.225032
H       -0.934700      -0.226194       3.463140
H       -3.564551      -0.049184       1.140792
H       -2.974522       0.960343      -0.182955
H       -2.952137      -0.799836      -0.336060
H       -1.834227       0.004844       0.772489
H        1.802356      -0.024645       1.642143
[GEOCONV]
energy
0.0
23.9224953443
33.6568848827
162.991686577
78.9721835022
40.6339520228
35.8496992752
max-force
3.48755259566e-05
0.0118070998255
0.00514489186006
0.0084573529026
0.0191602905948
0.0099528177693
3.64636918998e-05
max-step
1000.0
1000.0
1000.0
1000.0
1000.0
1000.0
1000.0
