[Molden Format]
[Geometries] (XYZ)
12

C        1.559928       1.416668      -2.057635
C        0.532139       0.582280      -1.291881
C        1.095628      -0.714097      -0.799466
O        1.022216       2.606241      -2.569307
O        0.676080       3.479313      -1.491284
O        2.217541      -1.099282      -0.968422
H        0.769987       4.352399      -1.893177
H        2.422680       1.626647      -1.413714
H        1.901136       0.888720      -2.951232
H        0.358791      -1.323372      -0.238564
H       -0.332620       0.370401      -1.926582
H        0.165493       1.153581      -0.434436
12

C        1.484121       1.478180      -2.200905
C        0.508860       0.585498      -1.450619
C        0.991773      -0.629268      -0.683792
O        0.916342       2.712444      -2.541194
O        0.712697       3.489979      -1.357938
O        2.137105      -0.958010      -0.571496
H        0.651602       4.385736      -1.711139
H        2.397185       1.623189      -1.610151
H        1.753515       1.049120      -3.171861
H        0.178368      -1.237421      -0.253757
H       -0.335539       0.255468      -2.047408
H        0.294613       1.217467      -0.557635
12

C        1.432883       1.497399      -2.334567
C        0.500075       0.550591      -1.594663
C        0.911134      -0.530576      -0.639039
O        0.847672       2.754235      -2.525116
O        0.774515       3.437470      -1.270146
O        2.025982      -0.737959      -0.233756
H        0.584186       4.343002      -1.545286
H        2.387047       1.594251      -1.798695
H        1.635814       1.157604      -3.357162
H        0.077678      -1.175798      -0.328415
H       -0.324321       0.139435      -2.157148
H        0.453594       1.241450      -0.655569
12

C        1.418383       1.498013      -2.431948
C        0.529342       0.503050      -1.705979
C        0.858897      -0.451908      -0.627617
O        0.815515       2.762337      -2.511661
O        0.843279       3.366684      -1.215229
O        1.875140      -0.512300      -0.009598
H        0.551495       4.266271      -1.405137
H        2.399281       1.573237      -1.942101
H        1.569682       1.223726      -3.482944
H        0.039750      -1.150912      -0.386016
H       -0.276308       0.029265      -2.252344
H        0.673776       1.280636      -0.641520
12

C        1.405294       1.481388      -2.481580
C        0.535638       0.458845      -1.790444
C        0.799163      -0.386597      -0.643520
O        0.804948       2.753353      -2.491696
O        0.891950       3.290539      -1.165770
O        1.738807      -0.253893       0.100708
H        0.538748       4.180314      -1.282017
H        2.398367       1.534848      -2.013006
H        1.528776       1.249255      -3.545222
H        0.045347      -1.154339      -0.409344
H       -0.240188      -0.056385      -2.348180
H        0.883316       1.362428      -0.513492
12

C        1.360727       1.442959      -2.498150
C        0.484634       0.409610      -1.859580
C        0.709822      -0.308295      -0.690798
O        0.764366       2.718589      -2.462871
O        0.901071       3.191387      -1.113465
O        1.633501       0.057648       0.109267
H        0.515437       4.073902      -1.160860
H        2.350309       1.474816      -2.021569
H        1.489806       1.245659      -3.567931
H        0.039952      -1.114192      -0.392818
H       -0.258223      -0.120692      -2.449658
H        0.987447       1.358437      -0.400059
12

C        1.308777       1.423184      -2.532669
C        0.462422       0.355107      -1.922298
C        0.613433      -0.249754      -0.749009
O        0.715737       2.701005      -2.452580
O        0.885162       3.150299      -1.094968
O        1.454674       0.236524       0.148228
H        0.443207       4.008734      -1.104568
H        2.317154       1.440676      -2.093496
H        1.398512       1.255191      -3.608230
H       -0.018068      -1.072844      -0.443450
H       -0.245026      -0.201606      -2.525450
H        1.191129       1.397169      -0.256621
12

C        1.344260       1.362124      -2.577080
C        0.551778       0.245733      -1.976339
C        0.630718      -0.218479      -0.726004
O        0.767373       2.635837      -2.393520
O        1.032405       3.055037      -1.041190
O        1.335296       0.384732       0.261219
H        0.523172       3.869901      -0.975029
H        2.369879       1.377285      -2.175777
H        1.389107       1.254645      -3.662803
H        0.051438      -1.073006      -0.412137
H       -0.067871      -0.364970      -2.621991
H        1.402472       1.390752      -0.132294
12

C        1.529074       1.281047      -2.534676
C        0.793276       0.084745      -1.984726
C        0.621812      -0.178751      -0.691755
O        0.874877       2.526776      -2.373639
O        1.094803       3.021188      -1.046527
O        1.020924       0.566312       0.351846
H        0.450015       3.737029      -0.985162
H        2.539566       1.358202      -2.108697
H        1.613464       1.197674      -3.619967
H        0.115720      -1.077912      -0.366903
H        0.384797      -0.600592      -2.707330
H        1.350673       1.423781       0.031838
[GEOCONV]
energy
0.0
5.52381862746
18.89800286
44.5815259321
79.295845503
81.9036735395
37.5624965872
10.0668328315
2.44348657466
max-force
1.80214789162e-05
0.00276579472888
0.00403091985818
0.00603396740704
0.00573393407355
0.0097072988584
0.00923880043712
0.00829146665342
3.66128057723e-05
max-step
1000.0
1000.0
1000.0
1000.0
1000.0
1000.0
1000.0
1000.0
1000.0
