[Molden Format]
[Geometries] (XYZ)
12

C        1.559928       1.416668      -2.057635
C        0.532139       0.582280      -1.291881
C        1.095628      -0.714097      -0.799466
O        1.022216       2.606241      -2.569307
O        0.676080       3.479313      -1.491284
O        2.217541      -1.099282      -0.968422
H        0.769987       4.352399      -1.893177
H        2.422680       1.626647      -1.413714
H        1.901136       0.888720      -2.951232
H        0.358791      -1.323372      -0.238564
H       -0.332620       0.370401      -1.926582
H        0.165493       1.153581      -0.434436
12

C        1.499528       1.449766      -2.237842
C        0.519340       0.561309      -1.479522
C        1.024903      -0.637973      -0.721368
O        0.935291       2.687031      -2.571541
O        0.743105       3.461742      -1.384681
O        2.174414      -0.969939      -0.575226
H        0.678942       4.358153      -1.735918
H        2.416019       1.588625      -1.650529
H        1.763054       1.023734      -3.211809
H        0.205195      -1.249155      -0.301643
H       -0.326701       0.233999      -2.073905
H        0.302088       1.176992      -0.611063
12

C        1.447452       1.459030      -2.383079
C        0.506463       0.517503      -1.632379
C        0.954833      -0.551070      -0.682716
O        0.871293       2.722065      -2.562526
O        0.817593       3.399120      -1.303047
O        2.065541      -0.732142      -0.236442
H        0.624867       4.305990      -1.570824
H        2.405330       1.543513      -1.852677
H        1.640970       1.124952      -3.409028
H        0.122116      -1.212854      -0.381147
H       -0.324737       0.115555      -2.190400
H        0.454245       1.184588      -0.726093
12

C        1.426132       1.466103      -2.486454
C        0.535242       0.472549      -1.746761
C        0.895188      -0.459226      -0.663790
O        0.830176       2.734104      -2.545344
O        0.881728       3.322087      -1.242447
O        1.905835      -0.501930      -0.010538
H        0.580435       4.222160      -1.415096
H        2.413934       1.529921      -2.008954
H        1.561876       1.202467      -3.542397
H        0.072980      -1.164964      -0.425981
H       -0.283557       0.014802      -2.281354
H        0.681235       1.209388      -0.749475
12

C        1.401134       1.438635      -2.525262
C        0.523429       0.423830      -1.824003
C        0.833625      -0.366567      -0.666501
O        0.809626       2.714035      -2.501865
O        0.933786       3.213715      -1.167826
O        1.766093      -0.203786       0.106651
H        0.565925       4.102430      -1.247198
H        2.397722       1.478956      -2.061368
H        1.516689       1.225333      -3.594899
H        0.081950      -1.144114      -0.423123
H       -0.267048      -0.071542      -2.373456
H        0.854007       1.270413      -0.647497
12

C        1.385717       1.383825      -2.505201
C        0.480278       0.379153      -1.859138
C        0.760666      -0.314546      -0.710925
O        0.804657       2.670872      -2.464909
O        0.947196       3.108557      -1.106609
O        1.719371       0.106539       0.066818
H        0.587388       4.003944      -1.133435
H        2.365532       1.404276      -2.009503
H        1.532035       1.185283      -3.572331
H        0.107529      -1.120910      -0.371614
H       -0.285814      -0.115367      -2.448735
H        0.940859       1.267114      -0.470486
12

C        1.399760       1.373787      -2.498803
C        0.540692       0.318535      -1.883268
C        0.711047      -0.294754      -0.717298
O        0.815856       2.655870      -2.431838
O        0.975320       3.106106      -1.071938
O        1.581358       0.193875       0.158596
H        0.550920       3.971847      -1.089285
H        2.408594       1.381715      -2.061322
H        1.487245       1.197739      -3.574019
H        0.075214      -1.109219      -0.394973
H       -0.184172      -0.224387      -2.480446
H        1.273948       1.322050      -0.231441
12

C        1.383845       1.330879      -2.561931
C        0.572207       0.229018      -1.962087
C        0.669914      -0.239118      -0.715770
O        0.822888       2.611601      -2.385788
O        1.070410       3.013009      -1.022394
O        1.417396       0.378406       0.251384
H        0.576423       3.836249      -0.957018
H        2.408928       1.328933      -2.157618
H        1.428524       1.218909      -3.647466
H        0.085344      -1.079443      -0.381634
H       -0.073428      -0.362747      -2.601187
H        1.458111       1.341646      -0.131163
12

C        1.529074       1.281047      -2.534676
C        0.793276       0.084745      -1.984726
C        0.621812      -0.178751      -0.691755
O        0.874877       2.526776      -2.373639
O        1.094803       3.021188      -1.046527
O        1.020924       0.566312       0.351846
H        0.450015       3.737029      -0.985162
H        2.539566       1.358202      -2.108697
H        1.613464       1.197674      -3.619967
H        0.115720      -1.077912      -0.366903
H        0.384797      -0.600592      -2.707330
H        1.350673       1.423781       0.031838
[GEOCONV]
energy
0.0
4.61673480763
16.3860657824
39.3455546415
70.9081550252
78.3038638306
36.6764779969
7.79773858183
2.44348657466
max-force
1.80214789162e-05
0.0030477464055
0.00374472544684
0.00433433289368
0.0045805108652
0.00346046152423
0.0113140962441
0.00639344201843
3.66128057723e-05
max-step
1000.0
1000.0
1000.0
1000.0
1000.0
1000.0
1000.0
1000.0
1000.0
