[Molden Format]
[Geometries] (XYZ)
12

C        1.602346       1.637805      -2.179284
C        1.610175       0.203452      -1.622136
C        0.952471       0.135842      -0.269333
O        0.354378       2.072119      -2.645106
O       -0.510832       2.396821      -1.560415
O        1.522330      -0.142924       0.747588
H       -0.944198       3.207842      -1.859731
H        2.221632       1.681375      -3.079955
H        1.999588       2.335846      -1.432178
H       -0.122261       0.386619      -0.279692
H        1.060168      -0.438042      -2.313185
H        2.643184      -0.137045      -1.542374
12

C        1.762861       1.666785      -2.263570
C        1.487923       0.370296      -1.561478
C        0.892043       0.026963      -0.227706
O        0.197769       1.898633      -2.600462
O       -0.377200       2.488658      -1.475243
O        1.547590      -0.323894       0.710476
H       -0.922643       3.189356      -1.855395
H        2.394718       1.355336      -3.077317
H        2.085449       2.509179      -1.661021
H       -0.206523       0.135301      -0.171335
H        0.976965      -0.229061      -2.427125
H        2.582194       0.258964      -1.354305
12

C        1.941533       1.611924      -2.357582
C        1.436190       0.512301      -1.514077
C        0.863566      -0.038603      -0.263266
O        0.009661       1.726130      -2.445079
O       -0.318315       2.588212      -1.408849
O        1.546543      -0.434484       0.643851
H       -0.968565       3.180136      -1.812571
H        2.534647       1.048807      -3.060453
H        2.284060       2.546813      -1.927545
H       -0.239117      -0.053523      -0.226975
H        0.981338      -0.083046      -2.559906
H        2.533894       0.607081      -1.154389
12

C        2.136660       1.539162      -2.500345
C        1.445133       0.675148      -1.497385
C        0.812115       0.018500      -0.347063
O       -0.067328       1.543886      -2.195035
O       -0.282567       2.586178      -1.278838
O        1.435471      -0.454624       0.581886
H       -1.054520       3.042919      -1.640168
H        2.705074       0.799315      -3.054771
H        2.548493       2.505701      -2.230350
H       -0.282808      -0.005899      -0.395579
H        1.092999       0.048912      -2.743990
H        2.495386       0.947739      -1.068624
12

C        2.210581       1.526943      -2.566969
C        1.397667       0.747506      -1.514137
C        0.779320       0.119822      -0.336652
O       -0.025816       1.444994      -2.058902
O       -0.203019       2.553378      -1.186680
O        1.391608      -0.425655       0.564494
H       -1.012287       2.955722      -1.508081
H        2.879006       0.784482      -2.987843
H        2.554694       2.520635      -2.312989
H       -0.314024       0.193350      -0.338044
H        1.190395       0.162010      -2.925811
H        2.374894       1.098330      -1.035197
12

C        2.209613       1.476057      -2.482020
C        1.232300       0.823249      -1.487707
C        0.838514       0.110710      -0.247701
O       -0.043618       1.495481      -2.012988
O       -0.201081       2.659330      -1.201627
O        1.581651      -0.503684       0.490334
H       -0.976745       3.070994      -1.564662
H        2.986681       0.769220      -2.725342
H        2.446838       2.499455      -2.245418
H       -0.239763       0.202423      -0.041868
H        1.170992       0.311142      -3.038228
H        2.126996       1.169346      -0.937007
12

C        2.178486       1.398337      -2.441725
C        1.193373       0.969436      -1.353563
C        0.880613       0.049388      -0.225273
O       -0.044846       1.587204      -1.871095
O       -0.187260       2.855844      -1.249020
O        1.659324      -0.674634       0.344229
H       -0.981470       3.208292      -1.650039
H        3.046413       0.769804      -2.510657
H        2.282831       2.462213      -2.411786
H       -0.181991       0.112080       0.072873
H        1.215684       0.364402      -3.030461
H        2.034675       1.369421      -0.777647
12

C        2.086495       1.220991      -2.439787
C        1.159702       1.098858      -1.237078
C        0.907909      -0.054334      -0.306450
O       -0.104900       1.632877      -1.663192
O       -0.166432       3.027414      -1.398088
O        1.733918      -0.833196       0.077161
H       -1.023492       3.269269      -1.748525
H        3.006923       0.666397      -2.349990
H        2.158444       2.259644      -2.689025
H       -0.147789      -0.108664       0.020663
H        1.328905       0.386671      -3.067602
H        1.889186       1.640132      -0.615478
12

C        1.894818       0.907944      -2.458045
C        1.121105       1.181460      -1.165932
C        0.972446      -0.073358      -0.332465
O       -0.182879       1.667670      -1.391208
O       -0.104414       3.033483      -1.802504
O        1.864669      -0.829650      -0.083797
H       -1.029646       3.242231      -1.982421
H        2.850663       0.456272      -2.210518
H        2.057697       1.838648      -2.994707
H       -0.058043      -0.229315       0.035094
H        1.327909       0.227336      -3.089130
H        1.674654       1.916990      -0.560167
[GEOCONV]
energy
0.0
42.5600629977
136.208114755
194.749638246
197.754326981
175.865333033
122.838001283
38.498566607
0.136506509571
max-force
6.62482895446e-05
0.00665664675455
0.00774220618025
0.00705480997816
0.00970558554095
0.0102073838746
0.0101005704421
0.0059510216773
0.00010206598721
max-step
1000.0
1000.0
1000.0
1000.0
1000.0
1000.0
1000.0
1000.0
1000.0
