[Molden Format]
[Geometries] (XYZ)
12

C        1.602346       1.637805      -2.179284
C        1.610175       0.203452      -1.622136
C        0.952471       0.135842      -0.269333
O        0.354378       2.072119      -2.645106
O       -0.510832       2.396821      -1.560415
O        1.522330      -0.142924       0.747588
H       -0.944198       3.207842      -1.859731
H        2.221632       1.681375      -3.079955
H        1.999588       2.335846      -1.432178
H       -0.122261       0.386619      -0.279692
H        1.060168      -0.438042      -2.313185
H        2.643184      -0.137045      -1.542374
12

C        1.739296       1.688706      -2.300250
C        1.475791       0.385679      -1.571075
C        0.885489       0.014064      -0.246426
O        0.170161       1.890107      -2.587951
O       -0.299591       2.599278      -1.480722
O        1.552274      -0.321257       0.687207
H       -0.859085       3.279196      -1.877503
H        2.355551       1.385699      -3.122790
H        1.991787       2.585159      -1.748274
H       -0.216921       0.061323      -0.197510
H        1.052140      -0.205431      -2.421461
H        2.568237       0.321272      -1.288044
12

C        2.093259       1.632604      -2.401943
C        1.455889       0.553060      -1.589041
C        0.870372       0.029513      -0.320190
O       -0.070259       1.733218      -2.368578
O       -0.332716       2.671571      -1.385791
O        1.553254      -0.393998       0.567816
H       -1.018982       3.230179      -1.783744
H        2.696499       1.074963      -3.104567
H        2.417841       2.604106      -2.064217
H       -0.224764       0.028695      -0.280014
H        1.083778       0.026848      -2.510501
H        2.594404       0.659519      -1.196136
12

C        2.347165       1.583722      -2.506234
C        1.367777       0.732212      -1.705677
C        0.766900       0.212168      -0.419337
O       -0.055272       1.492554      -2.163643
O       -0.284074       2.491964      -1.186272
O        1.420186      -0.280017       0.453882
H       -1.057024       2.950327      -1.535751
H        3.013846       0.886832      -2.980697
H        2.744043       2.557484      -2.292079
H       -0.320547       0.285312      -0.376151
H        1.097266       0.251327      -2.696360
H        2.589277       1.055057      -1.345326
12

C        2.380939       1.515679      -2.593107
C        1.232831       0.843484      -1.648550
C        0.774975       0.162343      -0.384230
O       -0.015459       1.479714      -2.045148
O       -0.310985       2.607808      -1.203938
O        1.489898      -0.440312       0.380906
H       -1.161537       2.909739      -1.553268
H        3.102762       0.749759      -2.860907
H        2.846172       2.477548      -2.435410
H       -0.296045       0.303539      -0.226285
H        1.258500       0.484510      -2.860046
H        2.289644       1.263400      -1.276999
12

C        2.280758       1.444876      -2.712812
C        1.233946       0.851948      -1.558870
C        0.778178       0.148197      -0.328787
O        0.057039       1.501286      -2.051860
O       -0.233602       2.646142      -1.225240
O        1.435006      -0.508547       0.443173
H       -1.046942       3.002824      -1.611301
H        3.138021       0.811165      -2.949013
H        2.484514       2.471828      -2.556395
H       -0.303870       0.297700      -0.203160
H        1.471804       0.571827      -3.162857
H        2.099342       1.271692      -0.994062
12

C        2.173386       1.356221      -2.570732
C        1.154275       0.964617      -1.426972
C        0.861408       0.018678      -0.323665
O       -0.039687       1.548486      -1.946640
O       -0.211639       2.835855      -1.360855
O        1.623801      -0.706358       0.257965
H       -1.017267       3.178985      -1.770763
H        3.071008       0.758875      -2.643785
H        2.280907       2.407517      -2.528001
H       -0.214382       0.084811      -0.044005
H        1.351225       0.461183      -3.217975
H        1.926712       1.400368      -0.762268
12

C        2.101567       1.179975      -2.526927
C        1.109480       1.079365      -1.301332
C        0.898233      -0.087760      -0.374796
O       -0.113450       1.598520      -1.725305
O       -0.190298       2.993388      -1.430951
O        1.753157      -0.817968       0.041343
H       -1.037724       3.243990      -1.798869
H        3.017870       0.610816      -2.421660
H        2.226562       2.210711      -2.763870
H       -0.163195      -0.186875      -0.074739
H        1.493835       0.474070      -3.166746
H        1.739896       1.672080      -0.610765
12

C        1.894818       0.907944      -2.458045
C        1.121105       1.181460      -1.165932
C        0.972446      -0.073358      -0.332465
O       -0.182879       1.667670      -1.391208
O       -0.104414       3.033483      -1.802504
O        1.864669      -0.829650      -0.083797
H       -1.029646       3.242231      -1.982421
H        2.850663       0.456272      -2.210518
H        2.057697       1.838648      -2.994707
H       -0.058043      -0.229315       0.035094
H        1.327909       0.227336      -3.089130
H        1.674654       1.916990      -0.560167
[GEOCONV]
energy
0.0
43.5518462704
144.071440821
129.233213062
144.028405148
116.802491839
84.6382500058
19.1086719596
0.136506509571
max-force
6.62482895446e-05
0.00483223255783
0.00475016476444
0.00833569290706
0.0058203743665
0.00529703828353
0.00926404163859
0.00340052310538
0.00010206598721
max-step
1000.0
1000.0
1000.0
1000.0
1000.0
1000.0
1000.0
1000.0
1000.0
