47
 energy: -63.131812886208 gnorm: 0.000370017890 xtb: 6.4.0 (d4b70c2)
C         5.19701238341361   -5.53732562919110   -0.00994434765702
C         4.46888844156385   -6.06837000941036    1.23081626370422
C         4.45382522012978   -5.07503637471338    2.40164201712170
H         4.94051745861063   -6.99880000877253    1.55790865183946
H         3.43694687356574   -6.28950097474129    0.96548917198365
C         3.78766478847776   -3.78441292467212    2.04215999822712
H         5.47497963878022   -4.87277610051284    2.72594601244368
H         3.92615673732101   -5.54207112337499    3.23837694506106
C         6.71079998692783   -5.64773160266444    0.14487578750649
H         7.04769892223491   -5.11200991590899    1.02850459869526
H         7.21529790567052   -5.22326176597856   -0.71991949905124
H         7.00981411278810   -6.69031929176571    0.23935347125694
C         4.73302788820988   -6.29545493842930   -1.27112984101584
H         4.92668319111874   -4.48552074197551   -0.14802324917630
C         3.30124120946827   -5.97137560169794   -1.55144647609646
H         4.86650242371488   -7.36874777302741   -1.12250915866211
H         5.35195399512473   -5.97879305207337   -2.11210766815542
C         2.91505561720429   -4.92463433172229   -2.26343486397980
C         1.47617986370611   -4.46860441718290   -2.31359856341170
C         2.48265981383298   -3.59188903641250    1.82044570924900
C         2.06390382204658   -2.22190530795186    1.45125365346661
C         1.42427429892359   -4.64561797071487    1.93492121169301
H         0.55564034497292   -4.25317116950712    2.46286349477563
H         1.79727862365433   -5.50692783359335    2.48129962149530
H         1.10863042939412   -4.96240334684826    0.94278360765239
O         2.60495363304150   -1.23697425971555    1.91092163525281
C         0.91616566003226   -2.06237085181932    0.45858869315407
C         1.32980996421906   -2.47780175129984   -0.96135886349811
H         0.62234350387099   -1.01070302703083    0.45590455466368
H         0.06330491394836   -2.67449552840397    0.75204634871470
S         3.16081303654609   -2.12018526242894   -1.19889835843048
C         3.29907461284792   -0.33029733169433   -0.93357590661897
H         2.67987699182076    0.21015479555099   -1.64251459806776
H         4.34393073963920   -0.10079281136048   -1.11753964193121
H         3.04432599017271   -0.08338419902168    0.09266278536338
O         1.13251727549017   -3.85077146776765   -1.06459005459874
C         1.20897091357442   -3.59102923782277   -3.49422789852823
C         0.77362619481691   -2.34864053442809   -3.37421559786495
C         0.51881406997856   -1.73884753024535   -2.03066277085410
H         4.43757793553238   -2.92773555365220    1.92142210232144
H         0.58954854562078   -1.72885123477822   -4.23932087462150
H         0.76234265079736   -0.67621263374075   -2.03840183173296
H        -0.54360147692616   -1.83263747046042   -1.77739461691246
H         0.81789019534624   -5.34845875242589   -2.34946632454471
H         1.41606337987519   -4.03864504745366   -4.45392072692980
H         2.55384442307983   -6.59111350021482   -1.07305763187788
H         3.63973285582059   -4.28955556695137   -2.75041697142842
