      -----------------------------------------------------------      
     |                   =====================                   |     
     |                           x T B                           |     
     |                   =====================                   |     
     |                         S. Grimme                         |     
     |          Mulliken Center for Theoretical Chemistry        |     
     |                    University of Bonn                     |     
      -----------------------------------------------------------      

   * xtb version 6.4.0 (d4b70c2) compiled by 'ehlert@majestix' on 2021-02-01

   xtb is free software: you can redistribute it and/or modify it under
   the terms of the GNU Lesser General Public License as published by
   the Free Software Foundation, either version 3 of the License, or
   (at your option) any later version.
   
   xtb is distributed in the hope that it will be useful,
   but WITHOUT ANY WARRANTY; without even the implied warranty of
   MERCHANTABILITY or FITNESS FOR A PARTICULAR PURPOSE.  See the
   GNU Lesser General Public License for more details.
   
   Cite this work as:
   * C. Bannwarth, E. Caldeweyher, S. Ehlert, A. Hansen, P. Pracht,
     J. Seibert, S. Spicher, S. Grimme, WIREs Comput. Mol. Sci., 2020,
     e01493. DOI: 10.1002/wcms.1493
   
   for GFN2-xTB:
   * C. Bannwarth, S. Ehlert and S. Grimme., J. Chem. Theory Comput., 2019,
     15, 1652-1671. DOI: 10.1021/acs.jctc.8b01176
   for GFN1-xTB:
   * S. Grimme, C. Bannwarth, P. Shushkov, J. Chem. Theory Comput., 2017,
     13, 1989-2009. DOI: 10.1021/acs.jctc.7b00118
   for GFN0-xTB:
   * P. Pracht, E. Caldeweyher, S. Ehlert, S. Grimme, ChemRxiv, 2019, preprint.
     DOI: 10.26434/chemrxiv.8326202.v1
   for GFN-FF:
   * S. Spicher and S. Grimme, Angew. Chem. Int. Ed., 2020, 59, 15665-15673.
     DOI: 10.1002/anie.202004239
   
   for DFT-D4:
   * E. Caldeweyher, C. Bannwarth and S. Grimme, J. Chem. Phys., 2017,
     147, 034112. DOI: 10.1063/1.4993215
   * E. Caldeweyher, S. Ehlert, A. Hansen, H. Neugebauer, S. Spicher,
     C. Bannwarth and S. Grimme, J. Chem. Phys., 2019, 150, 154122.
     DOI: 10.1063/1.5090222
   * E. Caldeweyher, J.-M. Mewes, S. Ehlert and S. Grimme, Phys. Chem. Chem. Phys.
     2020, 22, 8499-8512. DOI: 10.1039/D0CP00502A
   
   for sTDA-xTB:
   * S. Grimme and C. Bannwarth, J. Chem. Phys., 2016, 145, 054103.
     DOI: 10.1063/1.4959605
   
   in the mass-spec context:
   * V. Asgeirsson, C. Bauer and S. Grimme, Chem. Sci., 2017, 8, 4879.
     DOI: 10.1039/c7sc00601b
   * J. Koopman and S. Grimme, ACS Omega 2019, 4, 12, 15120-15133.
     DOI: 10.1021/acsomega.9b02011
   
   for metadynamics refer to:
   * S. Grimme, J. Chem. Theory Comput., 2019, 155, 2847-2862
     DOI: 10.1021/acs.jctc.9b00143
   
   with help from (in alphabetical order)
   P. Atkinson, C. Bannwarth, F. Bohle, G. Brandenburg, E. Caldeweyher
   M. Checinski, S. Dohm, S. Ehlert, S. Ehrlich, I. Gerasimov, J. Koopman
   C. Lavinge, S. Lehtola, F. März, M. Müller, F. Musil, H. Neugebauer
   J. Pisarek, P. Pracht, J. Seibert, P. Shushkov, S. Spicher, M. Stahn
   T. Strunk, J. Stückrath, T. Rose, and J. Unsleber
   
 * started run on 2021/06/01 at 21:37:13.344     

           -------------------------------------------------
          |                Calculation Setup                |
           -------------------------------------------------

          program call               : xtb -c 0 -u 0 -a 1.0 --iterations 100 --opt normal --namespace FWGWZODPTLNGHT-SMLDIACYSA-N /home/zhao922/bin/Github/YARP/version2.0/CONF_GEN/SAAA//opt-folder/FWGWZODPTLNGHT-SMLDIACYSA-N.xyz
          hostname                   : bell-a021
          calculation namespace      : FWGWZODPTLNGHT-SMLDIACYSA-N
          coordinate file            : /home/zhao922/bin/Github/YARP/version2.0/CONF_GEN/SAAA//opt-folder/FWGWZODPTLNGHT-SMLDIACYSA-N.xyz
          omp threads                :                     4
          number of atoms            :                    47
          number of electrons        :                   116
          charge                     :                     0
          spin                       :                   0.0
          first test random number   :      0.94243669980537

   ID    Z sym.   atoms
    1    6 C      1-3, 6, 9, 13, 15, 18-22, 27, 28, 32, 37-39
    2    1 H      4, 5, 7, 8, 10-12, 14, 16, 17, 23-25, 29, 30, 33-35, 40-47
    3    8 O      26, 36
    4   16 S      31

           -------------------------------------------------
          |                 G F N 2 - x T B                 |
           -------------------------------------------------

        Reference                      10.1021/acs.jctc.8b01176
      * Hamiltonian:
        H0-scaling (s, p, d)           1.850000    2.230000    2.230000
        zeta-weighting                 0.500000
      * Dispersion:
        s8                             2.700000
        a1                             0.520000
        a2                             5.000000
        s9                             5.000000
      * Repulsion:
        kExp                           1.500000    1.000000
        rExp                           1.000000
      * Coulomb:
        alpha                          2.000000
        third order                    shell-resolved
        anisotropic                    true
        a3                             3.000000
        a5                             4.000000
        cn-shift                       1.200000
        cn-exp                         4.000000
        max-rad                        5.000000


          ...................................................
          :                      SETUP                      :
          :.................................................:
          :  # basis functions                 116          :
          :  # atomic orbitals                 115          :
          :  # shells                           69          :
          :  # electrons                       116          :
          :  max. iterations                   100          :
          :  Hamiltonian                  GFN2-xTB          :
          :  restarted?                      false          :
          :  GBSA solvation                  false          :
          :  PC potential                    false          :
          :  electronic temp.          300.0000000     K    :
          :  accuracy                    1.0000000          :
          :  -> integral cutoff          0.2500000E+02      :
          :  -> integral neglect         0.1000000E-07      :
          :  -> SCF convergence          0.1000000E-05 Eh   :
          :  -> wf. convergence          0.1000000E-03 e    :
          :  Broyden damping             0.4000000          :
          ...................................................

 iter      E             dE          RMSdq      gap      omega  full diag
   1    -63.7402469 -0.637402E+02  0.402E+00    3.19       0.0  T
   2    -63.8443206 -0.104074E+00  0.221E+00    2.24       1.0  T
   3    -63.8399336  0.438706E-02  0.113E+00    2.26       1.0  T
   4    -63.8542683 -0.143347E-01  0.418E-01    1.99       1.0  T
   5    -63.8575681 -0.329983E-02  0.217E-01    2.03       1.0  T
   6    -63.8587873 -0.121921E-02  0.856E-02    2.07       1.0  T
   7    -63.8589172 -0.129839E-03  0.290E-02    2.06       1.0  T
   8    -63.8589212 -0.402421E-05  0.162E-02    2.06       1.0  T
   9    -63.8589279 -0.674429E-05  0.661E-03    2.06       2.2  T
  10    -63.8589285 -0.558684E-06  0.213E-03    2.06       6.8  T
  11    -63.8589285 -0.451773E-07  0.116E-03    2.06      12.6  T
  12    -63.8589286 -0.401139E-07  0.436E-04    2.06      33.5  T
  13    -63.8589286 -0.197019E-08  0.209E-04    2.06      69.8  T

   *** convergence criteria satisfied after 13 iterations ***

         #    Occupation            Energy/Eh            Energy/eV
      -------------------------------------------------------------
         1        2.0000           -0.6995865             -19.0367
       ...           ...                  ...                  ...
        52        2.0000           -0.4212673             -11.4633
        53        2.0000           -0.4012197             -10.9177
        54        2.0000           -0.3983758             -10.8404
        55        2.0000           -0.3952928             -10.7565
        56        2.0000           -0.3892379             -10.5917
        57        2.0000           -0.3846403             -10.4666
        58        2.0000           -0.3438159              -9.3557 (HOMO)
        59                         -0.2682339              -7.2990 (LUMO)
        60                         -0.2151793              -5.8553
        61                         -0.2123662              -5.7788
        62                         -0.1948197              -5.3013
        63                         -0.1856555              -5.0519
       ...                                ...                  ...
       115                          0.6146041              16.7242
      -------------------------------------------------------------
                  HL-Gap            0.0755820 Eh            2.0567 eV
             Fermi-level           -0.3060249 Eh           -8.3274 eV

 SCC (total)                   0 d,  0 h,  0 min,  0.089 sec
 SCC setup                      ...        0 min,  0.000 sec (  0.295%)
 Dispersion                     ...        0 min,  0.000 sec (  0.517%)
 classical contributions        ...        0 min,  0.000 sec (  0.071%)
 integral evaluation            ...        0 min,  0.009 sec (  9.692%)
 iterations                     ...        0 min,  0.063 sec ( 70.792%)
 molecular gradient             ...        0 min,  0.016 sec ( 18.177%)
 printout                       ...        0 min,  0.000 sec (  0.425%)

         :::::::::::::::::::::::::::::::::::::::::::::::::::::
         ::                     SUMMARY                     ::
         :::::::::::::::::::::::::::::::::::::::::::::::::::::
         :: total energy             -63.085188168122 Eh    ::
         :: gradient norm              0.094074672454 Eh/a0 ::
         :: HOMO-LUMO gap              2.056690682171 eV    ::
         ::.................................................::
         :: SCC energy               -63.858928588229 Eh    ::
         :: -> isotropic ES            0.054051572934 Eh    ::
         :: -> anisotropic ES          0.010788512071 Eh    ::
         :: -> anisotropic XC          0.033388197424 Eh    ::
         :: -> dispersion             -0.051536916710 Eh    ::
         :: repulsion energy           0.772787172122 Eh    ::
         :: add. restraining           0.000000000000 Eh    ::
         :: total charge              -0.000000000000 e     ::
         :::::::::::::::::::::::::::::::::::::::::::::::::::::

      ----------------------------------------------------------- 
     |                   =====================                   |
     |                        A N C O P T                        |
     |                   =====================                   |
     |               Approximate Normal Coordinate               |
     |                Rational Function Optimizer                |
      ----------------------------------------------------------- 

          ...................................................
          :                      SETUP                      :
          :.................................................:
          :   optimization level            normal          :
          :   max. optcycles                   200          :
          :   ANC micro-cycles                  20          :
          :   degrees of freedom               135          :
          :.................................................:
          :   RF solver                   davidson          :
          :   write xtbopt.log                true          :
          :   linear?                        false          :
          :   energy convergence         0.5000000E-05 Eh   :
          :   grad. convergence          0.1000000E-02 Eh/α :
          :   maximium RF displ.         1.0000000          :
          :   Hlow (freq-cutoff)         0.1000000E-01      :
          :   Hmax (freq-cutoff)         5.0000000          :
          :   S6 in model hess.         20.0000000          :
          ...................................................

generating ANC from model Hessian ...
Using Lindh-Hessian (1995)
 Shifting diagonal of input Hessian by   9.454794930350298E-003
 Lowest  eigenvalues of input Hessian
    0.000000    0.000000    0.000000    0.000000    0.000000    0.000000
    0.010000    0.010172    0.010485    0.010810    0.011656    0.012399
    0.012523    0.013044    0.013620    0.013974    0.014786    0.015113
 Highest eigenvalues
    1.484882    1.546422    1.791703    1.817519    1.861094    2.064548
 

........................................................................
.............................. CYCLE    1 ..............................
........................................................................
   1    -63.8589286 -0.638589E+02  0.880E-05    2.06       0.0  T
   2    -63.8589286 -0.436842E-10  0.546E-05    2.06     267.1  T
   3    -63.8589286 -0.120650E-10  0.341E-05    2.06     427.2  T
     SCC iter.                  ...        0 min,  0.006 sec
     gradient                   ...        0 min,  0.012 sec
 * total energy  :   -63.0851882 Eh     change       -0.4189289E-09 Eh
   gradient norm :     0.0940752 Eh/α   predicted     0.0000000E+00 (-100.00%)
   displ. norm   :     0.3739853 α      lambda       -0.2048837E-01
   maximum displ.:     0.1003098 α      in ANC's #39, #17, #88, ...

........................................................................
.............................. CYCLE    2 ..............................
........................................................................
   1    -63.9324767 -0.639325E+02  0.241E-01    2.16       0.0  T
   2    -63.9326109 -0.134130E-03  0.138E-01    2.14       1.0  T
   3    -63.9325108  0.100076E-03  0.638E-02    2.13       1.0  T
   4    -63.9326264 -0.115600E-03  0.208E-02    2.13       1.0  T
   5    -63.9326407 -0.143458E-04  0.588E-03    2.13       2.5  T
   6    -63.9326409 -0.217009E-06  0.331E-03    2.13       4.4  T
   7    -63.9326410 -0.645910E-07  0.143E-03    2.13      10.2  T
   8    -63.9326410 -0.332656E-07  0.654E-04    2.13      22.3  T
   9    -63.9326411 -0.847518E-08  0.316E-04    2.13      46.2  T
     SCC iter.                  ...        0 min,  0.018 sec
     gradient                   ...        0 min,  0.012 sec
 * total energy  :   -63.0985226 Eh     change       -0.1333446E-01 Eh
   gradient norm :     0.0329343 Eh/α   predicted    -0.1167788E-01 ( -12.42%)
   displ. norm   :     0.3700140 α      lambda       -0.4911694E-02
   maximum displ.:     0.1393128 α      in ANC's #17, #8, #24, ...

........................................................................
.............................. CYCLE    3 ..............................
........................................................................
   1    -63.9642970 -0.639643E+02  0.136E-01    2.19       0.0  T
   2    -63.9643449 -0.479305E-04  0.787E-02    2.18       1.0  T
   3    -63.9643194  0.255126E-04  0.358E-02    2.17       1.0  T
   4    -63.9643501 -0.306653E-04  0.118E-02    2.17       1.2  T
   5    -63.9643549 -0.477779E-05  0.279E-03    2.17       5.2  T
   6    -63.9643550 -0.812501E-07  0.172E-03    2.17       8.5  T
   7    -63.9643550 -0.302127E-07  0.634E-04    2.17      23.0  T
   8    -63.9643550 -0.821791E-08  0.313E-04    2.17      46.6  T
     SCC iter.                  ...        0 min,  0.015 sec
     gradient                   ...        0 min,  0.012 sec
 * total energy  :   -63.1016234 Eh     change       -0.3100810E-02 Eh
   gradient norm :     0.0092758 Eh/α   predicted    -0.2792078E-02 (  -9.96%)
   displ. norm   :     0.3520005 α      lambda       -0.1631144E-02
   maximum displ.:     0.1396957 α      in ANC's #1, #8, #17, ...

........................................................................
.............................. CYCLE    4 ..............................
........................................................................
   1    -63.9693654 -0.639694E+02  0.923E-02    2.17       0.0  T
   2    -63.9693710 -0.562918E-05  0.536E-02    2.18       1.0  T
   3    -63.9693661  0.491743E-05  0.141E-02    2.18       1.0  T
   4    -63.9693718 -0.573618E-05  0.454E-03    2.18       3.2  T
   5    -63.9693723 -0.457064E-06  0.199E-03    2.18       7.3  T
   6    -63.9693724 -0.913702E-07  0.657E-04    2.18      22.2  T
   7    -63.9693724 -0.693758E-08  0.296E-04    2.18      49.2  T
     SCC iter.                  ...        0 min,  0.052 sec
     gradient                   ...        0 min,  0.012 sec
 * total energy  :   -63.1028454 Eh     change       -0.1221968E-02 Eh
   gradient norm :     0.0087115 Eh/α   predicted    -0.9167396E-03 ( -24.98%)
   displ. norm   :     0.4751198 α      lambda       -0.1420412E-02
   maximum displ.:     0.2119768 α      in ANC's #1, #8, #5, ...

........................................................................
.............................. CYCLE    5 ..............................
........................................................................
   1    -63.9677395 -0.639677E+02  0.110E-01    2.17       0.0  T
   2    -63.9677445 -0.503901E-05  0.632E-02    2.18       1.0  T
   3    -63.9677379  0.661739E-05  0.159E-02    2.18       1.0  T
   4    -63.9677452 -0.727196E-05  0.624E-03    2.18       2.3  T
   5    -63.9677460 -0.884711E-06  0.233E-03    2.18       6.3  T
   6    -63.9677462 -0.116559E-06  0.871E-04    2.18      16.8  T
   7    -63.9677462 -0.128829E-07  0.465E-04    2.18      31.3  T
     SCC iter.                  ...        0 min,  0.013 sec
     gradient                   ...        0 min,  0.012 sec
 * total energy  :   -63.1038736 Eh     change       -0.1028222E-02 Eh
   gradient norm :     0.0090089 Eh/α   predicted    -0.8705381E-03 ( -15.34%)
   displ. norm   :     0.4395344 α      lambda       -0.8834903E-03
   maximum displ.:     0.2229688 α      in ANC's #1, #8, #5, ...

........................................................................
.............................. CYCLE    6 ..............................
........................................................................
   1    -63.9649589 -0.639650E+02  0.108E-01    2.18       0.0  T
   2    -63.9649652 -0.631097E-05  0.606E-02    2.19       1.0  T
   3    -63.9649434  0.217947E-04  0.258E-02    2.19       1.0  T
   4    -63.9649675 -0.241035E-04  0.781E-03    2.19       1.9  T
   5    -63.9649690 -0.146718E-05  0.254E-03    2.19       5.7  T
   6    -63.9649690 -0.452258E-07  0.832E-04    2.19      17.5  T
   7    -63.9649690 -0.803227E-08  0.510E-04    2.19      28.6  T
     SCC iter.                  ...        0 min,  0.013 sec
     gradient                   ...        0 min,  0.012 sec
 * total energy  :   -63.1045153 Eh     change       -0.6416341E-03 Eh
   gradient norm :     0.0086058 Eh/α   predicted    -0.5270990E-03 ( -17.85%)
   displ. norm   :     0.3853747 α      lambda       -0.6046257E-03
   maximum displ.:     0.2153950 α      in ANC's #1, #8, #5, ...

........................................................................
.............................. CYCLE    7 ..............................
........................................................................
   1    -63.9652286 -0.639652E+02  0.980E-02    2.20       0.0  T
   2    -63.9652324 -0.387963E-05  0.552E-02    2.21       1.0  T
   3    -63.9652059  0.265345E-04  0.281E-02    2.21       1.0  T
   4    -63.9652363 -0.303956E-04  0.675E-03    2.21       2.2  T
   5    -63.9652372 -0.858264E-06  0.253E-03    2.21       5.8  T
   6    -63.9652372 -0.664543E-07  0.752E-04    2.21      19.4  T
   7    -63.9652372 -0.680355E-08  0.457E-04    2.21      31.9  T
     SCC iter.                  ...        0 min,  0.013 sec
     gradient                   ...        0 min,  0.012 sec
 * total energy  :   -63.1049630 Eh     change       -0.4477762E-03 Eh
   gradient norm :     0.0066442 Eh/α   predicted    -0.3472156E-03 ( -22.46%)
   displ. norm   :     0.3502049 α      lambda       -0.4404745E-03
   maximum displ.:     0.2128321 α      in ANC's #1, #8, #5, ...

........................................................................
.............................. CYCLE    8 ..............................
........................................................................
   1    -63.9663561 -0.639664E+02  0.958E-02    2.22       0.0  T
   2    -63.9663601 -0.398297E-05  0.544E-02    2.22       1.0  T
   3    -63.9663315  0.285402E-04  0.293E-02    2.23       1.0  T
   4    -63.9663645 -0.329513E-04  0.643E-03    2.23       2.3  T
   5    -63.9663654 -0.852447E-06  0.255E-03    2.23       5.7  T
   6    -63.9663654 -0.720223E-07  0.758E-04    2.23      19.2  T
   7    -63.9663654 -0.643820E-08  0.466E-04    2.23      31.3  T
     SCC iter.                  ...        0 min,  0.013 sec
     gradient                   ...        0 min,  0.012 sec
 * total energy  :   -63.1052914 Eh     change       -0.3283919E-03 Eh
   gradient norm :     0.0061855 Eh/α   predicted    -0.2472494E-03 ( -24.71%)
   displ. norm   :     0.3404740 α      lambda       -0.3323529E-03
   maximum displ.:     0.2163550 α      in ANC's #1, #8, #7, ...

........................................................................
.............................. CYCLE    9 ..............................
........................................................................
   1    -63.9680521 -0.639681E+02  0.915E-02    2.25       0.0  T
   2    -63.9680556 -0.347067E-05  0.523E-02    2.25       1.0  T
   3    -63.9680342  0.214056E-04  0.250E-02    2.25       1.0  T
   4    -63.9680583 -0.240635E-04  0.579E-03    2.25       2.5  T
   5    -63.9680590 -0.785142E-06  0.223E-03    2.25       6.5  T
   6    -63.9680591 -0.528992E-07  0.681E-04    2.25      21.4  T
   7    -63.9680591 -0.597048E-08  0.420E-04    2.25      34.7  T
     SCC iter.                  ...        0 min,  0.013 sec
     gradient                   ...        0 min,  0.012 sec
 * total energy  :   -63.1055446 Eh     change       -0.2532038E-03 Eh
   gradient norm :     0.0046280 Eh/α   predicted    -0.1854460E-03 ( -26.76%)
   displ. norm   :     0.3622427 α      lambda       -0.2851722E-03
   maximum displ.:     0.2382919 α      in ANC's #1, #8, #7, ...

........................................................................
.............................. CYCLE   10 ..............................
........................................................................
   1    -63.9687824 -0.639688E+02  0.957E-02    2.25       0.0  T
   2    -63.9687846 -0.211659E-05  0.552E-02    2.25       1.0  T
   3    -63.9687651  0.194499E-04  0.232E-02    2.26       1.0  T
   4    -63.9687866 -0.215218E-04  0.496E-03    2.26       2.9  T
   5    -63.9687872 -0.567290E-06  0.196E-03    2.26       7.4  T
   6    -63.9687872 -0.368468E-07  0.718E-04    2.26      20.3  T
   7    -63.9687872 -0.512851E-08  0.469E-04    2.26      31.1  T
     SCC iter.                  ...        0 min,  0.013 sec
     gradient                   ...        0 min,  0.012 sec
 * total energy  :   -63.1057679 Eh     change       -0.2232273E-03 Eh
   gradient norm :     0.0045577 Eh/α   predicted    -0.1613066E-03 ( -27.74%)
   displ. norm   :     0.4008267 α      lambda       -0.2734352E-03
   maximum displ.:     0.2662396 α      in ANC's #1, #4, #8, ...

........................................................................
.............................. CYCLE   11 ..............................
........................................................................
   1    -63.9694242 -0.639694E+02  0.970E-02    2.27       0.0  T
   2    -63.9694267 -0.246681E-05  0.562E-02    2.27       1.0  T
   3    -63.9694135  0.131135E-04  0.191E-02    2.27       1.0  T
   4    -63.9694277 -0.141617E-04  0.512E-03    2.27       2.8  T
   5    -63.9694285 -0.755712E-06  0.192E-03    2.27       7.6  T
   6    -63.9694285 -0.297148E-07  0.750E-04    2.27      19.4  T
   7    -63.9694285 -0.672841E-08  0.475E-04    2.27      30.7  T
     SCC iter.                  ...        0 min,  0.013 sec
     gradient                   ...        0 min,  0.012 sec
 * total energy  :   -63.1059836 Eh     change       -0.2156883E-03 Eh
   gradient norm :     0.0051868 Eh/α   predicted    -0.1586846E-03 ( -26.43%)
   displ. norm   :     0.4497844 α      lambda       -0.2899430E-03
   maximum displ.:     0.3005312 α      in ANC's #1, #4, #8, ...

........................................................................
.............................. CYCLE   12 ..............................
........................................................................
   1    -63.9704521 -0.639705E+02  0.101E-01    2.27       0.0  T
   2    -63.9704541 -0.196940E-05  0.586E-02    2.27       1.0  T
   3    -63.9704458  0.828435E-05  0.154E-02    2.27       1.0  T
   4    -63.9704549 -0.906330E-05  0.472E-03    2.27       3.1  T
   5    -63.9704554 -0.485546E-06  0.163E-03    2.27       9.0  T
   6    -63.9704554 -0.299197E-07  0.768E-04    2.27      19.0  T
   7    -63.9704554 -0.514301E-08  0.485E-04    2.27      30.1  T
     SCC iter.                  ...        0 min,  0.014 sec
     gradient                   ...        0 min,  0.012 sec
 * total energy  :   -63.1062045 Eh     change       -0.2209237E-03 Eh
   gradient norm :     0.0048163 Eh/α   predicted    -0.1743042E-03 ( -21.10%)
   displ. norm   :     0.5684836 α      lambda       -0.3310765E-03
   maximum displ.:     0.3707243 α      in ANC's #1, #6, #4, ...

........................................................................
.............................. CYCLE   13 ..............................
........................................................................
   1    -63.9659824 -0.639660E+02  0.125E-01    2.27       0.0  T
   2    -63.9659890 -0.653678E-05  0.721E-02    2.27       1.0  T
   3    -63.9659816  0.735071E-05  0.174E-02    2.27       1.0  T
   4    -63.9659888 -0.717953E-05  0.759E-03    2.27       1.9  T
   5    -63.9659907 -0.194740E-05  0.266E-03    2.27       5.5  T
   6    -63.9659908 -0.235166E-07  0.111E-03    2.27      13.1  T
   7    -63.9659908 -0.193286E-07  0.626E-04    2.27      23.3  T
   8    -63.9659908 -0.609752E-09  0.320E-04    2.27      45.6  T
     SCC iter.                  ...        0 min,  0.016 sec
     gradient                   ...        0 min,  0.012 sec
 * total energy  :   -63.1063812 Eh     change       -0.1767494E-03 Eh
   gradient norm :     0.0093352 Eh/α   predicted    -0.2190363E-03 (  23.92%)
   displ. norm   :     0.3356361 α      lambda       -0.3691784E-03
   maximum displ.:     0.2012452 α      in ANC's #1, #2, #5, ...

........................................................................
.............................. CYCLE   14 ..............................
........................................................................
   1    -63.9706533 -0.639707E+02  0.637E-02    2.28       0.0  T
   2    -63.9706553 -0.196317E-05  0.365E-02    2.28       1.0  T
   3    -63.9706546  0.644085E-06  0.680E-03    2.28       2.1  T
   4    -63.9706554 -0.742823E-06  0.347E-03    2.28       4.2  T
   5    -63.9706557 -0.271326E-06  0.147E-03    2.28       9.9  T
   6    -63.9706557 -0.495938E-07  0.432E-04    2.28      33.8  T
   7    -63.9706557 -0.190302E-08  0.265E-04    2.28      55.0  T
     SCC iter.                  ...        0 min,  0.013 sec
     gradient                   ...        0 min,  0.012 sec
 * total energy  :   -63.1066377 Eh     change       -0.2564383E-03 Eh
   gradient norm :     0.0074994 Eh/α   predicted    -0.2053844E-03 ( -19.91%)
   displ. norm   :     0.4928741 α      lambda       -0.3277958E-03
   maximum displ.:     0.3036157 α      in ANC's #1, #2, #8, ...

........................................................................
.............................. CYCLE   15 ..............................
........................................................................
   1    -63.9687651 -0.639688E+02  0.100E-01    2.27       0.0  T
   2    -63.9687692 -0.402793E-05  0.583E-02    2.28       1.0  T
   3    -63.9687674  0.171755E-05  0.897E-03    2.28       1.6  T
   4    -63.9687693 -0.182331E-05  0.463E-03    2.28       3.2  T
   5    -63.9687699 -0.591975E-06  0.166E-03    2.28       8.8  T
   6    -63.9687699 -0.300122E-07  0.777E-04    2.28      18.8  T
   7    -63.9687699 -0.780749E-08  0.472E-04    2.28      30.9  T
     SCC iter.                  ...        0 min,  0.014 sec
     gradient                   ...        0 min,  0.012 sec
 * total energy  :   -63.1068828 Eh     change       -0.2451273E-03 Eh
   gradient norm :     0.0062845 Eh/α   predicted    -0.2037161E-03 ( -16.89%)
   displ. norm   :     0.4968870 α      lambda       -0.3767078E-03
   maximum displ.:     0.2693172 α      in ANC's #1, #2, #6, ...

........................................................................
.............................. CYCLE   16 ..............................
........................................................................
   1    -63.9706816 -0.639707E+02  0.942E-02    2.26       0.0  T
   2    -63.9706853 -0.369108E-05  0.546E-02    2.27       1.0  T
   3    -63.9706829  0.242668E-05  0.990E-03    2.27       1.5  T
   4    -63.9706852 -0.230580E-05  0.498E-03    2.27       2.9  T
   5    -63.9706860 -0.820224E-06  0.161E-03    2.27       9.1  T
   6    -63.9706860 -0.267887E-07  0.668E-04    2.27      21.8  T
   7    -63.9706860 -0.409538E-08  0.423E-04    2.27      34.5  T
     SCC iter.                  ...        0 min,  0.013 sec
     gradient                   ...        0 min,  0.012 sec
 * total energy  :   -63.1071629 Eh     change       -0.2800749E-03 Eh
   gradient norm :     0.0070029 Eh/α   predicted    -0.2348639E-03 ( -16.14%)
   displ. norm   :     0.6115618 α      lambda       -0.4043337E-03
   maximum displ.:     0.3334050 α      in ANC's #1, #2, #8, ...

........................................................................
.............................. CYCLE   17 ..............................
........................................................................
   1    -63.9669846 -0.639670E+02  0.113E-01    2.28       0.0  T
   2    -63.9669882 -0.368630E-05  0.658E-02    2.28       1.0  T
   3    -63.9669839  0.438926E-05  0.130E-02    2.28       1.1  T
   4    -63.9669886 -0.470219E-05  0.529E-03    2.28       2.8  T
   5    -63.9669894 -0.804643E-06  0.191E-03    2.28       7.6  T
   6    -63.9669894 -0.181365E-07  0.807E-04    2.28      18.1  T
   7    -63.9669894 -0.644535E-08  0.484E-04    2.28      30.2  T
     SCC iter.                  ...        0 min,  0.013 sec
     gradient                   ...        0 min,  0.012 sec
 * total energy  :   -63.1074507 Eh     change       -0.2878259E-03 Eh
   gradient norm :     0.0083964 Eh/α   predicted    -0.2777823E-03 (  -3.49%)
   displ. norm   :     0.4580927 α      lambda       -0.6002191E-03
   maximum displ.:     0.2669091 α      in ANC's #2, #8, #16, ...

........................................................................
.............................. CYCLE   18 ..............................
........................................................................
   1    -63.9750585 -0.639751E+02  0.107E-01    2.28       0.0  T
   2    -63.9750646 -0.609945E-05  0.583E-02    2.28       1.0  T
   3    -63.9750598  0.475216E-05  0.159E-02    2.29       1.0  T
   4    -63.9750655 -0.569488E-05  0.749E-03    2.29       1.9  T
   5    -63.9750664 -0.823931E-06  0.239E-03    2.29       6.1  T
   6    -63.9750665 -0.152203E-06  0.609E-04    2.29      23.9  T
   7    -63.9750665 -0.551194E-08  0.346E-04    2.29      42.2  T
     SCC iter.                  ...        0 min,  0.013 sec
     gradient                   ...        0 min,  0.012 sec
 * total energy  :   -63.1076800 Eh     change       -0.2292589E-03 Eh
   gradient norm :     0.0113467 Eh/α   predicted    -0.3630782E-03 (  58.37%)
   displ. norm   :     0.5392511 α      lambda       -0.6186563E-03
   maximum displ.:     0.2837754 α      in ANC's #1, #2, #8, ...

........................................................................
.............................. CYCLE   19 ..............................
........................................................................
   1    -63.9685362 -0.639685E+02  0.102E-01    2.26       0.0  T
   2    -63.9685441 -0.786456E-05  0.585E-02    2.27       1.0  T
   3    -63.9685387  0.540214E-05  0.160E-02    2.27       1.0  T
   4    -63.9685441 -0.547047E-05  0.678E-03    2.27       2.2  T
   5    -63.9685456 -0.150312E-05  0.236E-03    2.27       6.2  T
   6    -63.9685457 -0.428848E-07  0.993E-04    2.27      14.7  T
   7    -63.9685457 -0.137473E-07  0.571E-04    2.27      25.5  T
     SCC iter.                  ...        0 min,  0.013 sec
     gradient                   ...        0 min,  0.012 sec
 * total energy  :   -63.1081182 Eh     change       -0.4382055E-03 Eh
   gradient norm :     0.0097959 Eh/α   predicted    -0.3992708E-03 (  -8.89%)
   displ. norm   :     0.4021205 α      lambda       -0.5844687E-03
   maximum displ.:     0.2017942 α      in ANC's #2, #1, #7, ...

........................................................................
.............................. CYCLE   20 ..............................
........................................................................
   1    -63.9674193 -0.639674E+02  0.778E-02    2.24       0.0  T
   2    -63.9674255 -0.621553E-05  0.441E-02    2.24       1.0  T
   3    -63.9674228  0.271314E-05  0.116E-02    2.24       1.3  T
   4    -63.9674252 -0.238933E-05  0.601E-03    2.24       2.4  T
   5    -63.9674264 -0.118700E-05  0.188E-03    2.24       7.8  T
   6    -63.9674264 -0.346646E-07  0.676E-04    2.24      21.6  T
   7    -63.9674264 -0.727379E-08  0.384E-04    2.24      38.0  T
     SCC iter.                  ...        0 min,  0.013 sec
     gradient                   ...        0 min,  0.012 sec
 * total energy  :   -63.1084961 Eh     change       -0.3779830E-03 Eh
   gradient norm :     0.0135862 Eh/α   predicted    -0.3394878E-03 ( -10.18%)
   displ. norm   :     0.4869195 α      lambda       -0.6509919E-03
   maximum displ.:     0.2703577 α      in ANC's #2, #7, #8, ...
 * RMSD in coord.:     1.0049623 α      energy gain  -0.2330797E-01 Eh

generating ANC from model Hessian ...
Using Lindh-Hessian (1995)
 Shifting diagonal of input Hessian by   9.343225675527733E-003
 Lowest  eigenvalues of input Hessian
    0.000000    0.000000    0.000000    0.000000    0.000000    0.000000
    0.010000    0.010089    0.010519    0.010870    0.011586    0.012304
    0.012498    0.013199    0.014067    0.014210    0.015199    0.015807
 Highest eigenvalues
    1.533826    1.570003    1.883125    1.913494    1.966004    2.134925
 

........................................................................
.............................. CYCLE   21 ..............................
........................................................................
   1    -63.9672405 -0.639672E+02  0.995E-02    2.23       0.0  T
   2    -63.9672463 -0.583331E-05  0.548E-02    2.22       1.0  T
   3    -63.9672445  0.187257E-05  0.124E-02    2.22       1.2  T
   4    -63.9672462 -0.173127E-05  0.706E-03    2.22       2.1  T
   5    -63.9672475 -0.126198E-05  0.214E-03    2.22       6.8  T
   6    -63.9672476 -0.989990E-07  0.534E-04    2.22      27.3  T
   7    -63.9672476 -0.379500E-08  0.314E-04    2.22      46.4  T
     SCC iter.                  ...        0 min,  0.013 sec
     gradient                   ...        0 min,  0.012 sec
 * total energy  :   -63.1089448 Eh     change       -0.4486306E-03 Eh
   gradient norm :     0.0126712 Eh/α   predicted     0.0000000E+00 (-100.00%)
   displ. norm   :     0.1101753 α      lambda       -0.4505158E-03
   maximum displ.:     0.0552711 α      in ANC's #7, #4, #8, ...

........................................................................
.............................. CYCLE   22 ..............................
........................................................................
   1    -63.9729626 -0.639730E+02  0.452E-02    2.25       0.0  T
   2    -63.9729649 -0.220837E-05  0.259E-02    2.24       1.0  T
   3    -63.9729582  0.660892E-05  0.147E-02    2.24       1.0  T
   4    -63.9729664 -0.813187E-05  0.341E-03    2.24       4.3  T
   5    -63.9729665 -0.100154E-06  0.153E-03    2.24       9.5  T
   6    -63.9729665 -0.329996E-07  0.562E-04    2.24      26.0  T
   7    -63.9729665 -0.594643E-08  0.288E-04    2.24      50.6  T
     SCC iter.                  ...        0 min,  0.013 sec
     gradient                   ...        0 min,  0.012 sec
 * total energy  :   -63.1092621 Eh     change       -0.3173600E-03 Eh
   gradient norm :     0.0040268 Eh/α   predicted    -0.2279937E-03 ( -28.16%)
   displ. norm   :     0.1959882 α      lambda       -0.3008193E-03
   maximum displ.:     0.1058101 α      in ANC's #7, #1, #4, ...

........................................................................
.............................. CYCLE   23 ..............................
........................................................................
   1    -63.9763869 -0.639764E+02  0.545E-02    2.26       0.0  T
   2    -63.9763886 -0.174008E-05  0.302E-02    2.25       1.0  T
   3    -63.9763827  0.586721E-05  0.137E-02    2.25       1.1  T
   4    -63.9763896 -0.690239E-05  0.391E-03    2.25       3.7  T
   5    -63.9763898 -0.127312E-06  0.149E-03    2.25       9.8  T
   6    -63.9763898 -0.457659E-07  0.413E-04    2.25      35.3  T
   7    -63.9763898 -0.309135E-08  0.236E-04    2.25      61.7  T
     SCC iter.                  ...        0 min,  0.013 sec
     gradient                   ...        0 min,  0.012 sec
 * total energy  :   -63.1094939 Eh     change       -0.2317646E-03 Eh
   gradient norm :     0.0039703 Eh/α   predicted    -0.1562220E-03 ( -32.59%)
   displ. norm   :     0.3809525 α      lambda       -0.4071314E-03
   maximum displ.:     0.2127031 α      in ANC's #7, #1, #8, ...

........................................................................
.............................. CYCLE   24 ..............................
........................................................................
   1    -63.9770250 -0.639770E+02  0.960E-02    2.27       0.0  T
   2    -63.9770294 -0.435783E-05  0.517E-02    2.26       1.0  T
   3    -63.9770241  0.524827E-05  0.154E-02    2.26       1.0  T
   4    -63.9770301 -0.595480E-05  0.732E-03    2.26       2.0  T
   5    -63.9770310 -0.867743E-06  0.237E-03    2.26       6.2  T
   6    -63.9770311 -0.116575E-06  0.553E-04    2.26      26.4  T
   7    -63.9770311 -0.461945E-08  0.335E-04    2.26      43.6  T
     SCC iter.                  ...        0 min,  0.014 sec
     gradient                   ...        0 min,  0.012 sec
 * total energy  :   -63.1098371 Eh     change       -0.3432369E-03 Eh
   gradient norm :     0.0086855 Eh/α   predicted    -0.2332561E-03 ( -32.04%)
   displ. norm   :     0.5390358 α      lambda       -0.5506097E-03
   maximum displ.:     0.2896177 α      in ANC's #7, #1, #8, ...

........................................................................
.............................. CYCLE   25 ..............................
........................................................................
   1    -63.9734662 -0.639735E+02  0.128E-01    2.26       0.0  T
   2    -63.9734751 -0.891879E-05  0.680E-02    2.26       1.0  T
   3    -63.9734742  0.890585E-06  0.151E-02    2.26       1.0  T
   4    -63.9734754 -0.113492E-05  0.884E-03    2.26       1.7  T
   5    -63.9734767 -0.133949E-05  0.365E-03    2.26       4.0  T
   6    -63.9734771 -0.385788E-06  0.706E-04    2.26      20.7  T
   7    -63.9734771 -0.643014E-08  0.433E-04    2.26      33.7  T
     SCC iter.                  ...        0 min,  0.013 sec
     gradient                   ...        0 min,  0.012 sec
 * total energy  :   -63.1102673 Eh     change       -0.4301187E-03 Eh
   gradient norm :     0.0130140 Eh/α   predicted    -0.3553003E-03 ( -17.39%)
   displ. norm   :     0.4740629 α      lambda       -0.5843250E-03
   maximum displ.:     0.2447498 α      in ANC's #1, #8, #7, ...

........................................................................
.............................. CYCLE   26 ..............................
........................................................................
   1    -63.9702971 -0.639703E+02  0.104E-01    2.24       0.0  T
   2    -63.9703028 -0.570393E-05  0.553E-02    2.24       1.0  T
   3    -63.9703007  0.205661E-05  0.136E-02    2.24       1.1  T
   4    -63.9703028 -0.207487E-05  0.790E-03    2.24       1.8  T
   5    -63.9703041 -0.135434E-05  0.179E-03    2.24       8.1  T
   6    -63.9703042 -0.506985E-07  0.614E-04    2.24      23.8  T
   7    -63.9703042 -0.587382E-08  0.386E-04    2.24      37.8  T
     SCC iter.                  ...        0 min,  0.013 sec
     gradient                   ...        0 min,  0.012 sec
 * total energy  :   -63.1107401 Eh     change       -0.4728606E-03 Eh
   gradient norm :     0.0120410 Eh/α   predicted    -0.3578500E-03 ( -24.32%)
   displ. norm   :     0.4329266 α      lambda       -0.8020051E-03
   maximum displ.:     0.2546414 α      in ANC's #1, #8, #7, ...

........................................................................
.............................. CYCLE   27 ..............................
........................................................................
   1    -63.9722859 -0.639723E+02  0.918E-02    2.22       0.0  T
   2    -63.9722930 -0.709420E-05  0.490E-02    2.22       1.0  T
   3    -63.9722854  0.756405E-05  0.187E-02    2.22       1.0  T
   4    -63.9722948 -0.938583E-05  0.720E-03    2.22       2.0  T
   5    -63.9722953 -0.496394E-06  0.242E-03    2.22       6.0  T
   6    -63.9722954 -0.105315E-06  0.810E-04    2.22      18.0  T
   7    -63.9722954 -0.169473E-07  0.393E-04    2.22      37.1  T
     SCC iter.                  ...        0 min,  0.013 sec
     gradient                   ...        0 min,  0.012 sec
 * total energy  :   -63.1112344 Eh     change       -0.4942991E-03 Eh
   gradient norm :     0.0064783 Eh/α   predicted    -0.4761626E-03 (  -3.67%)
   displ. norm   :     0.5787596 α      lambda       -0.6050280E-03
   maximum displ.:     0.3432417 α      in ANC's #1, #8, #7, ...

........................................................................
.............................. CYCLE   28 ..............................
........................................................................
   1    -63.9678092 -0.639678E+02  0.134E-01    2.22       0.0  T
   2    -63.9678224 -0.131328E-04  0.680E-02    2.21       1.0  T
   3    -63.9678174  0.493649E-05  0.200E-02    2.21       1.0  T
   4    -63.9678238 -0.637357E-05  0.104E-02    2.21       1.4  T
   5    -63.9678255 -0.169196E-05  0.355E-03    2.21       4.1  T
   6    -63.9678257 -0.235250E-06  0.768E-04    2.21      19.0  T
   7    -63.9678257 -0.109232E-07  0.428E-04    2.21      34.1  T
     SCC iter.                  ...        0 min,  0.013 sec
     gradient                   ...        0 min,  0.012 sec
 * total energy  :   -63.1115709 Eh     change       -0.3364769E-03 Eh
   gradient norm :     0.0118280 Eh/α   predicted    -0.4038477E-03 (  20.02%)
   displ. norm   :     0.1947669 α      lambda       -0.3931899E-03
   maximum displ.:     0.1394834 α      in ANC's #1, #8, #9, ...

........................................................................
.............................. CYCLE   29 ..............................
........................................................................
   1    -63.9734602 -0.639735E+02  0.433E-02    2.20       0.0  T
   2    -63.9734620 -0.178631E-05  0.234E-02    2.20       1.0  T
   3    -63.9734608  0.112318E-05  0.780E-03    2.20       1.9  T
   4    -63.9734622 -0.133606E-05  0.364E-03    2.20       4.0  T
   5    -63.9734624 -0.226114E-06  0.120E-03    2.20      12.1  T
   6    -63.9734624 -0.306776E-07  0.334E-04    2.20      43.6  T
   7    -63.9734624 -0.169700E-08  0.172E-04    2.20      84.9  T
     SCC iter.                  ...        0 min,  0.013 sec
     gradient                   ...        0 min,  0.012 sec
 * total energy  :   -63.1118739 Eh     change       -0.3029654E-03 Eh
   gradient norm :     0.0078285 Eh/α   predicted    -0.2040535E-03 ( -32.65%)
   displ. norm   :     0.4467632 α      lambda       -0.4814728E-03
   maximum displ.:     0.3285836 α      in ANC's #1, #8, #7, ...

........................................................................
.............................. CYCLE   30 ..............................
........................................................................
   1    -63.9766617 -0.639767E+02  0.990E-02    2.19       0.0  T
   2    -63.9766687 -0.696505E-05  0.510E-02    2.18       1.0  T
   3    -63.9766654  0.330673E-05  0.150E-02    2.19       1.0  T
   4    -63.9766693 -0.389785E-05  0.813E-03    2.18       1.8  T
   5    -63.9766704 -0.113240E-05  0.203E-03    2.18       7.2  T
   6    -63.9766705 -0.958735E-07  0.519E-04    2.18      28.1  T
   7    -63.9766705 -0.470981E-08  0.273E-04    2.18      53.5  T
     SCC iter.                  ...        0 min,  0.013 sec
     gradient                   ...        0 min,  0.012 sec
 * total energy  :   -63.1122366 Eh     change       -0.3627372E-03 Eh
   gradient norm :     0.0060342 Eh/α   predicted    -0.2887888E-03 ( -20.39%)
   displ. norm   :     0.4522490 α      lambda       -0.3882972E-03
   maximum displ.:     0.3424076 α      in ANC's #1, #8, #7, ...

........................................................................
.............................. CYCLE   31 ..............................
........................................................................
   1    -63.9786871 -0.639787E+02  0.108E-01    2.18       0.0  T
   2    -63.9786942 -0.705625E-05  0.556E-02    2.18       1.0  T
   3    -63.9786949 -0.657270E-06  0.115E-02    2.18       1.3  T
   4    -63.9786951 -0.259373E-06  0.590E-03    2.18       2.5  T
   5    -63.9786955 -0.342228E-06  0.206E-03    2.18       7.1  T
   6    -63.9786956 -0.135736E-06  0.614E-04    2.18      23.8  T
   7    -63.9786956 -0.787671E-08  0.311E-04    2.18      46.9  T
     SCC iter.                  ...        0 min,  0.013 sec
     gradient                   ...        0 min,  0.012 sec
 * total energy  :   -63.1125414 Eh     change       -0.3048524E-03 Eh
   gradient norm :     0.0062147 Eh/α   predicted    -0.2338590E-03 ( -23.29%)
   displ. norm   :     0.5006936 α      lambda       -0.4186001E-03
   maximum displ.:     0.3697347 α      in ANC's #1, #10, #8, ...

........................................................................
.............................. CYCLE   32 ..............................
........................................................................
   1    -63.9782959 -0.639783E+02  0.121E-01    2.18       0.0  T
   2    -63.9783040 -0.814729E-05  0.631E-02    2.18       1.0  T
   3    -63.9783028  0.124471E-05  0.146E-02    2.18       1.0  T
   4    -63.9783035 -0.762993E-06  0.952E-03    2.18       1.5  T
   5    -63.9783057 -0.219741E-05  0.283E-03    2.18       5.1  T
   6    -63.9783060 -0.213886E-06  0.687E-04    2.18      21.2  T
   7    -63.9783060 -0.503015E-08  0.381E-04    2.18      38.3  T
     SCC iter.                  ...        0 min,  0.013 sec
     gradient                   ...        0 min,  0.012 sec
 * total energy  :   -63.1128656 Eh     change       -0.3241847E-03 Eh
   gradient norm :     0.0064209 Eh/α   predicted    -0.2617712E-03 ( -19.25%)
   displ. norm   :     0.5429764 α      lambda       -0.4111381E-03
   maximum displ.:     0.3845795 α      in ANC's #1, #10, #7, ...

........................................................................
.............................. CYCLE   33 ..............................
........................................................................
   1    -63.9756398 -0.639756E+02  0.137E-01    2.19       0.0  T
   2    -63.9756505 -0.106759E-04  0.707E-02    2.18       1.0  T
   3    -63.9756442  0.626946E-05  0.202E-02    2.18       1.0  T
   4    -63.9756511 -0.685886E-05  0.114E-02    2.18       1.3  T
   5    -63.9756535 -0.242899E-05  0.332E-03    2.18       4.4  T
   6    -63.9756538 -0.223469E-06  0.822E-04    2.18      17.7  T
   7    -63.9756538 -0.739115E-08  0.466E-04    2.18      31.3  T
     SCC iter.                  ...        0 min,  0.013 sec
     gradient                   ...        0 min,  0.012 sec
 * total energy  :   -63.1131649 Eh     change       -0.2992839E-03 Eh
   gradient norm :     0.0084464 Eh/α   predicted    -0.2661761E-03 ( -11.06%)
   displ. norm   :     0.5107536 α      lambda       -0.5886856E-03
   maximum displ.:     0.2573633 α      in ANC's #4, #1, #10, ...

........................................................................
.............................. CYCLE   34 ..............................
........................................................................
   1    -63.9801372 -0.639801E+02  0.121E-01    2.21       0.0  T
   2    -63.9801453 -0.812554E-05  0.679E-02    2.20       1.0  T
   3    -63.9801075  0.377657E-04  0.349E-02    2.20       1.0  T
   4    -63.9801517 -0.441648E-04  0.811E-03    2.20       1.8  T
   5    -63.9801521 -0.431337E-06  0.240E-03    2.20       6.1  T
   6    -63.9801522 -0.944869E-07  0.970E-04    2.20      15.0  T
   7    -63.9801522 -0.733451E-08  0.560E-04    2.20      26.0  T
     SCC iter.                  ...        0 min,  0.013 sec
     gradient                   ...        0 min,  0.012 sec
 * total energy  :   -63.1134332 Eh     change       -0.2682776E-03 Eh
   gradient norm :     0.0117780 Eh/α   predicted    -0.3711301E-03 (  38.34%)
   displ. norm   :     0.3552133 α      lambda       -0.4569723E-03
   maximum displ.:     0.2151038 α      in ANC's #1, #7, #10, ...

........................................................................
.............................. CYCLE   35 ..............................
........................................................................
   1    -63.9744139 -0.639744E+02  0.983E-02    2.21       0.0  T
   2    -63.9744208 -0.690475E-05  0.507E-02    2.20       1.0  T
   3    -63.9744181  0.275231E-05  0.147E-02    2.19       1.0  T
   4    -63.9744213 -0.318902E-05  0.810E-03    2.19       1.8  T
   5    -63.9744225 -0.121684E-05  0.270E-03    2.19       5.4  T
   6    -63.9744226 -0.138161E-06  0.798E-04    2.19      18.3  T
   7    -63.9744226 -0.977952E-08  0.400E-04    2.19      36.4  T
     SCC iter.                  ...        0 min,  0.013 sec
     gradient                   ...        0 min,  0.012 sec
 * total energy  :   -63.1137227 Eh     change       -0.2895222E-03 Eh
   gradient norm :     0.0080500 Eh/α   predicted    -0.2573159E-03 ( -11.12%)
   displ. norm   :     0.1949714 α      lambda       -0.3101977E-03
   maximum displ.:     0.0696331 α      in ANC's #20, #7, #21, ...

........................................................................
.............................. CYCLE   36 ..............................
........................................................................
   1    -63.9772124 -0.639772E+02  0.520E-02    2.21       0.0  T
   2    -63.9772147 -0.234538E-05  0.295E-02    2.20       1.0  T
   3    -63.9772098  0.499319E-05  0.134E-02    2.20       1.1  T
   4    -63.9772156 -0.584258E-05  0.393E-03    2.20       3.7  T
   5    -63.9772158 -0.248068E-06  0.172E-03    2.20       8.5  T
   6    -63.9772159 -0.516989E-07  0.524E-04    2.20      27.8  T
   7    -63.9772159 -0.273796E-08  0.258E-04    2.20      56.6  T
     SCC iter.                  ...        0 min,  0.013 sec
     gradient                   ...        0 min,  0.012 sec
 * total energy  :   -63.1139439 Eh     change       -0.2212365E-03 Eh
   gradient norm :     0.0058373 Eh/α   predicted    -0.1609955E-03 ( -27.23%)
   displ. norm   :     0.4466732 α      lambda       -0.3665939E-03
   maximum displ.:     0.1677228 α      in ANC's #4, #7, #1, ...

........................................................................
.............................. CYCLE   37 ..............................
........................................................................
   1    -63.9755364 -0.639755E+02  0.110E-01    2.21       0.0  T
   2    -63.9755422 -0.583201E-05  0.624E-02    2.20       1.0  T
   3    -63.9755206  0.215891E-04  0.264E-02    2.20       1.0  T
   4    -63.9755455 -0.249037E-04  0.730E-03    2.19       2.0  T
   5    -63.9755460 -0.489432E-06  0.302E-03    2.19       4.8  T
   6    -63.9755462 -0.203901E-06  0.942E-04    2.19      15.5  T
   7    -63.9755462 -0.468464E-08  0.588E-04    2.19      24.8  T
     SCC iter.                  ...        0 min,  0.013 sec
     gradient                   ...        0 min,  0.012 sec
 * total energy  :   -63.1141800 Eh     change       -0.2360858E-03 Eh
   gradient norm :     0.0095358 Eh/α   predicted    -0.2198758E-03 (  -6.87%)
   displ. norm   :     0.2952429 α      lambda       -0.3771941E-03
   maximum displ.:     0.1106363 α      in ANC's #21, #7, #20, ...

........................................................................
.............................. CYCLE   38 ..............................
........................................................................
   1    -63.9796704 -0.639797E+02  0.786E-02    2.20       0.0  T
   2    -63.9796724 -0.196683E-05  0.454E-02    2.19       1.0  T
   3    -63.9796575  0.148899E-04  0.216E-02    2.19       1.0  T
   4    -63.9796745 -0.170293E-04  0.377E-03    2.19       3.9  T
   5    -63.9796746 -0.100830E-06  0.169E-03    2.19       8.6  T
   6    -63.9796747 -0.662325E-07  0.607E-04    2.19      24.0  T
   7    -63.9796747 -0.383903E-08  0.376E-04    2.19      38.7  T
     SCC iter.                  ...        0 min,  0.013 sec
     gradient                   ...        0 min,  0.012 sec
 * total energy  :   -63.1143935 Eh     change       -0.2134241E-03 Eh
   gradient norm :     0.0097181 Eh/α   predicted    -0.2050371E-03 (  -3.93%)
   displ. norm   :     0.3819712 α      lambda       -0.3655563E-03
   maximum displ.:     0.1563444 α      in ANC's #7, #10, #1, ...

........................................................................
.............................. CYCLE   39 ..............................
........................................................................
   1    -63.9785957 -0.639786E+02  0.106E-01    2.20       0.0  T
   2    -63.9785998 -0.413780E-05  0.600E-02    2.20       1.0  T
   3    -63.9785869  0.129152E-04  0.207E-02    2.19       1.0  T
   4    -63.9786016 -0.146943E-04  0.680E-03    2.19       2.1  T
   5    -63.9786021 -0.494884E-06  0.209E-03    2.19       7.0  T
   6    -63.9786022 -0.949444E-07  0.713E-04    2.19      20.5  T
   7    -63.9786022 -0.642611E-08  0.421E-04    2.19      34.7  T
     SCC iter.                  ...        0 min,  0.013 sec
     gradient                   ...        0 min,  0.012 sec
 * total energy  :   -63.1146677 Eh     change       -0.2742604E-03 Eh
   gradient norm :     0.0096381 Eh/α   predicted    -0.2094454E-03 ( -23.63%)
   displ. norm   :     0.3957857 α      lambda       -0.5407986E-03
   maximum displ.:     0.2062635 α      in ANC's #7, #10, #13, ...

........................................................................
.............................. CYCLE   40 ..............................
........................................................................
   1    -63.9787351 -0.639787E+02  0.111E-01    2.20       0.0  T
   2    -63.9787402 -0.501497E-05  0.648E-02    2.19       1.0  T
   3    -63.9787305  0.963583E-05  0.179E-02    2.19       1.0  T
   4    -63.9787411 -0.106146E-04  0.593E-03    2.19       2.5  T
   5    -63.9787419 -0.791214E-06  0.228E-03    2.19       6.4  T
   6    -63.9787420 -0.535687E-07  0.877E-04    2.19      16.6  T
   7    -63.9787420 -0.111921E-07  0.499E-04    2.19      29.3  T
     SCC iter.                  ...        0 min,  0.013 sec
     gradient                   ...        0 min,  0.012 sec
 * total energy  :   -63.1150342 Eh     change       -0.3664975E-03 Eh
   gradient norm :     0.0087168 Eh/α   predicted    -0.3127570E-03 ( -14.66%)
   displ. norm   :     0.4592782 α      lambda       -0.4807041E-03
   maximum displ.:     0.2221360 α      in ANC's #7, #10, #11, ...

........................................................................
.............................. CYCLE   41 ..............................
........................................................................
   1    -63.9754937 -0.639755E+02  0.134E-01    2.19       0.0  T
   2    -63.9755005 -0.684114E-05  0.769E-02    2.19       1.0  T
   3    -63.9754933  0.722544E-05  0.177E-02    2.19       1.0  T
   4    -63.9755015 -0.816851E-05  0.757E-03    2.18       1.9  T
   5    -63.9755025 -0.102185E-05  0.232E-03    2.18       6.3  T
   6    -63.9755026 -0.739028E-07  0.934E-04    2.19      15.6  T
   7    -63.9755026 -0.790098E-08  0.612E-04    2.19      23.8  T
     SCC iter.                  ...        0 min,  0.013 sec
     gradient                   ...        0 min,  0.012 sec
 * total energy  :   -63.1153694 Eh     change       -0.3351950E-03 Eh
   gradient norm :     0.0109832 Eh/α   predicted    -0.2910548E-03 ( -13.17%)
   displ. norm   :     0.4063407 α      lambda       -0.6619138E-03
   maximum displ.:     0.1699879 α      in ANC's #7, #1, #18, ...

........................................................................
.............................. CYCLE   42 ..............................
........................................................................
   1    -63.9811415 -0.639811E+02  0.125E-01    2.18       0.0  T
   2    -63.9811457 -0.413460E-05  0.723E-02    2.18       1.0  T
   3    -63.9811196  0.260391E-04  0.278E-02    2.18       1.0  T
   4    -63.9811489 -0.292604E-04  0.580E-03    2.18       2.5  T
   5    -63.9811492 -0.342921E-06  0.171E-03    2.18       8.5  T
   6    -63.9811493 -0.284635E-07  0.794E-04    2.18      18.4  T
   7    -63.9811493  0.633690E-09  0.544E-04    2.18      26.8  T
     SCC iter.                  ...        0 min,  0.013 sec
     gradient                   ...        0 min,  0.012 sec
 * total energy  :   -63.1156451 Eh     change       -0.2756686E-03 Eh
   gradient norm :     0.0147502 Eh/α   predicted    -0.3856035E-03 (  39.88%)
   displ. norm   :     0.5697497 α      lambda       -0.9204820E-03
   maximum displ.:     0.3083898 α      in ANC's #7, #10, #11, ...
 * RMSD in coord.:     0.9354223 α      energy gain  -0.7148939E-02 Eh

generating ANC from model Hessian ...
Using Lindh-Hessian (1995)
 Shifting diagonal of input Hessian by   9.401020697246390E-003
 Lowest  eigenvalues of input Hessian
    0.000000    0.000000    0.000000    0.000000    0.000000    0.000000
    0.010000    0.010239    0.010849    0.010937    0.011594    0.012645
    0.012792    0.013410    0.013888    0.014258    0.015236    0.016570
 Highest eigenvalues
    1.508353    1.565910    1.883978    1.895663    1.950323    2.160042
 

........................................................................
.............................. CYCLE   43 ..............................
........................................................................
   1    -63.9739824 -0.639740E+02  0.150E-01    2.18       0.0  T
   2    -63.9739948 -0.123939E-04  0.867E-02    2.17       1.0  T
   3    -63.9739728  0.220452E-04  0.289E-02    2.16       1.0  T
   4    -63.9739984 -0.256303E-04  0.900E-03    2.16       1.6  T
   5    -63.9739999 -0.143845E-05  0.347E-03    2.16       4.2  T
   6    -63.9739999 -0.492809E-07  0.186E-03    2.16       7.9  T
   7    -63.9740000 -0.498490E-07  0.107E-03    2.16      13.6  T
   8    -63.9740000 -0.674510E-08  0.497E-04    2.16      29.4  T
   9    -63.9740000 -0.364761E-08  0.211E-04    2.16      69.3  T
     SCC iter.                  ...        0 min,  0.017 sec
     gradient                   ...        0 min,  0.012 sec
 * total energy  :   -63.1160901 Eh     change       -0.4450070E-03 Eh
   gradient norm :     0.0146990 Eh/α   predicted     0.0000000E+00 (-100.00%)
   displ. norm   :     0.1141423 α      lambda       -0.6567962E-03
   maximum displ.:     0.0516118 α      in ANC's #11, #9, #5, ...

........................................................................
.............................. CYCLE   44 ..............................
........................................................................
   1    -63.9807153 -0.639807E+02  0.508E-02    2.15       0.0  T
   2    -63.9807190 -0.363255E-05  0.302E-02    2.15       1.0  T
   3    -63.9807135  0.542001E-05  0.145E-02    2.16       1.0  T
   4    -63.9807201 -0.651610E-05  0.386E-03    2.16       3.8  T
   5    -63.9807204 -0.320622E-06  0.154E-03    2.15       9.5  T
   6    -63.9807204 -0.362181E-07  0.699E-04    2.15      20.9  T
   7    -63.9807204 -0.509691E-08  0.314E-04    2.15      46.4  T
     SCC iter.                  ...        0 min,  0.013 sec
     gradient                   ...        0 min,  0.012 sec
 * total energy  :   -63.1165471 Eh     change       -0.4570242E-03 Eh
   gradient norm :     0.0057816 Eh/α   predicted    -0.3326781E-03 ( -27.21%)
   displ. norm   :     0.1797638 α      lambda       -0.3738004E-03
   maximum displ.:     0.0823536 α      in ANC's #11, #9, #5, ...

........................................................................
.............................. CYCLE   45 ..............................
........................................................................
   1    -63.9846712 -0.639847E+02  0.604E-02    2.15       0.0  T
   2    -63.9846753 -0.403769E-05  0.357E-02    2.15       1.0  T
   3    -63.9846696  0.569714E-05  0.148E-02    2.15       1.0  T
   4    -63.9846763 -0.668365E-05  0.439E-03    2.15       3.3  T
   5    -63.9846766 -0.361101E-06  0.198E-03    2.15       7.4  T
   6    -63.9846767 -0.745408E-07  0.844E-04    2.15      17.3  T
   7    -63.9846767 -0.575720E-08  0.398E-04    2.15      36.7  T
     SCC iter.                  ...        0 min,  0.013 sec
     gradient                   ...        0 min,  0.012 sec
 * total energy  :   -63.1168179 Eh     change       -0.2708257E-03 Eh
   gradient norm :     0.0042356 Eh/α   predicted    -0.1929824E-03 ( -28.74%)
   displ. norm   :     0.2859024 α      lambda       -0.3587630E-03
   maximum displ.:     0.1287464 α      in ANC's #11, #9, #5, ...

........................................................................
.............................. CYCLE   46 ..............................
........................................................................
   1    -63.9855923 -0.639856E+02  0.887E-02    2.14       0.0  T
   2    -63.9855972 -0.485314E-05  0.521E-02    2.14       1.0  T
   3    -63.9855894  0.774522E-05  0.171E-02    2.14       1.0  T
   4    -63.9855984 -0.896736E-05  0.561E-03    2.14       2.6  T
   5    -63.9855989 -0.466834E-06  0.263E-03    2.14       5.5  T
   6    -63.9855990 -0.124668E-06  0.122E-03    2.14      12.0  T
   7    -63.9855990 -0.113605E-07  0.634E-04    2.14      23.0  T
   8    -63.9855990  0.474763E-09  0.315E-04    2.14      46.3  T
     SCC iter.                  ...        0 min,  0.015 sec
     gradient                   ...        0 min,  0.012 sec
 * total energy  :   -63.1171155 Eh     change       -0.2975825E-03 Eh
   gradient norm :     0.0077271 Eh/α   predicted    -0.1940665E-03 ( -34.79%)
   displ. norm   :     0.5709356 α      lambda       -0.6416484E-03
   maximum displ.:     0.2509258 α      in ANC's #9, #11, #5, ...

........................................................................
.............................. CYCLE   47 ..............................
........................................................................
   1    -63.9822788 -0.639823E+02  0.168E-01    2.15       0.0  T
   2    -63.9822937 -0.149652E-04  0.987E-02    2.14       1.0  T
   3    -63.9822827  0.110301E-04  0.238E-02    2.14       1.0  T
   4    -63.9822964 -0.137359E-04  0.102E-02    2.13       1.4  T
   5    -63.9822981 -0.164439E-05  0.465E-03    2.13       3.1  T
   6    -63.9822984 -0.279684E-06  0.244E-03    2.13       6.0  T
   7    -63.9822984 -0.515362E-07  0.131E-03    2.13      11.1  T
   8    -63.9822984 -0.322322E-08  0.643E-04    2.13      22.7  T
   9    -63.9822984 -0.108012E-07  0.206E-04    2.13      70.7  T
     SCC iter.                  ...        0 min,  0.017 sec
     gradient                   ...        0 min,  0.012 sec
 * total energy  :   -63.1176353 Eh     change       -0.5197679E-03 Eh
   gradient norm :     0.0114513 Eh/α   predicted    -0.4254036E-03 ( -18.16%)
   displ. norm   :     0.5884668 α      lambda       -0.6502121E-03
   maximum displ.:     0.2505746 α      in ANC's #9, #11, #5, ...

........................................................................
.............................. CYCLE   48 ..............................
........................................................................
   1    -63.9768910 -0.639769E+02  0.164E-01    2.16       0.0  T
   2    -63.9769063 -0.152564E-04  0.967E-02    2.15       1.0  T
   3    -63.9768943  0.119884E-04  0.240E-02    2.14       1.0  T
   4    -63.9769087 -0.144615E-04  0.108E-02    2.14       1.3  T
   5    -63.9769111 -0.236847E-05  0.473E-03    2.14       3.1  T
   6    -63.9769113 -0.138325E-06  0.239E-03    2.14       6.1  T
   7    -63.9769113 -0.229588E-07  0.144E-03    2.14      10.2  T
   8    -63.9769113 -0.207457E-07  0.583E-04    2.14      25.0  T
   9    -63.9769113 -0.793584E-08  0.220E-04    2.14      66.4  T
     SCC iter.                  ...        0 min,  0.017 sec
     gradient                   ...        0 min,  0.012 sec
 * total energy  :   -63.1180796 Eh     change       -0.4443557E-03 Eh
   gradient norm :     0.0145645 Eh/α   predicted    -0.4377025E-03 (  -1.50%)
   displ. norm   :     0.2926014 α      lambda       -0.6696036E-03
   maximum displ.:     0.1264717 α      in ANC's #8, #5, #11, ...

........................................................................
.............................. CYCLE   49 ..............................
........................................................................
   1    -63.9787382 -0.639787E+02  0.765E-02    2.18       0.0  T
   2    -63.9787449 -0.668315E-05  0.458E-02    2.17       1.0  T
   3    -63.9787258  0.190871E-04  0.255E-02    2.16       1.0  T
   4    -63.9787484 -0.225753E-04  0.631E-03    2.16       2.3  T
   5    -63.9787491 -0.732794E-06  0.275E-03    2.16       5.3  T
   6    -63.9787491 -0.571106E-07  0.141E-03    2.17      10.4  T
   7    -63.9787491 -0.595541E-08  0.810E-04    2.17      18.0  T
   8    -63.9787492 -0.691613E-08  0.378E-04    2.17      38.6  T
     SCC iter.                  ...        0 min,  0.015 sec
     gradient                   ...        0 min,  0.012 sec
 * total energy  :   -63.1185928 Eh     change       -0.5132037E-03 Eh
   gradient norm :     0.0124454 Eh/α   predicted    -0.3634669E-03 ( -29.18%)
   displ. norm   :     0.3700350 α      lambda       -0.8550740E-03
   maximum displ.:     0.1745584 α      in ANC's #8, #2, #5, ...

........................................................................
.............................. CYCLE   50 ..............................
........................................................................
   1    -63.9824392 -0.639824E+02  0.963E-02    2.19       0.0  T
   2    -63.9824452 -0.593806E-05  0.572E-02    2.18       1.0  T
   3    -63.9824204  0.247704E-04  0.279E-02    2.17       1.0  T
   4    -63.9824487 -0.282882E-04  0.660E-03    2.17       2.2  T
   5    -63.9824495 -0.804108E-06  0.284E-03    2.18       5.1  T
   6    -63.9824495 -0.189434E-07  0.144E-03    2.18      10.2  T
   7    -63.9824495 -0.834011E-08  0.873E-04    2.18      16.7  T
   8    -63.9824495 -0.115293E-07  0.263E-04    2.18      55.4  T
     SCC iter.                  ...        0 min,  0.015 sec
     gradient                   ...        0 min,  0.012 sec
 * total energy  :   -63.1192147 Eh     change       -0.6218881E-03 Eh
   gradient norm :     0.0120494 Eh/α   predicted    -0.4860983E-03 ( -21.84%)
   displ. norm   :     0.5750407 α      lambda       -0.7286692E-03
   maximum displ.:     0.2774202 α      in ANC's #8, #5, #2, ...

........................................................................
.............................. CYCLE   51 ..............................
........................................................................
   1    -63.9804215 -0.639804E+02  0.144E-01    2.20       0.0  T
   2    -63.9804322 -0.107260E-04  0.849E-02    2.19       1.0  T
   3    -63.9803949  0.372940E-04  0.349E-02    2.18       1.0  T
   4    -63.9804376 -0.427420E-04  0.975E-03    2.18       1.5  T
   5    -63.9804391 -0.146021E-05  0.453E-03    2.19       3.2  T
   6    -63.9804392 -0.812655E-07  0.235E-03    2.19       6.2  T
   7    -63.9804392 -0.320696E-07  0.142E-03    2.19      10.3  T
   8    -63.9804392 -0.257561E-07  0.437E-04    2.19      33.3  T
   9    -63.9804393 -0.315030E-08  0.187E-04    2.19      77.8  T
     SCC iter.                  ...        0 min,  0.017 sec
     gradient                   ...        0 min,  0.012 sec
 * total energy  :   -63.1197341 Eh     change       -0.5193919E-03 Eh
   gradient norm :     0.0154831 Eh/α   predicted    -0.4848108E-03 (  -6.66%)
   displ. norm   :     0.4535856 α      lambda       -0.1060039E-02
   maximum displ.:     0.2276827 α      in ANC's #2, #8, #1, ...

........................................................................
.............................. CYCLE   52 ..............................
........................................................................
   1    -63.9908388 -0.639908E+02  0.110E-01    2.19       0.0  T
   2    -63.9908528 -0.139887E-04  0.654E-02    2.18       1.0  T
   3    -63.9908183  0.345234E-04  0.341E-02    2.18       1.0  T
   4    -63.9908589 -0.406794E-04  0.858E-03    2.18       1.7  T
   5    -63.9908599 -0.990008E-06  0.394E-03    2.18       3.7  T
   6    -63.9908601 -0.175276E-06  0.199E-03    2.18       7.3  T
   7    -63.9908601 -0.300708E-07  0.100E-03    2.18      14.5  T
   8    -63.9908601 -0.490424E-08  0.509E-04    2.18      28.6  T
   9    -63.9908601 -0.401290E-08  0.200E-04    2.18      72.9  T
     SCC iter.                  ...        0 min,  0.017 sec
     gradient                   ...        0 min,  0.012 sec
 * total energy  :   -63.1202192 Eh     change       -0.4850573E-03 Eh
   gradient norm :     0.0131272 Eh/α   predicted    -0.6390675E-03 (  31.75%)
   displ. norm   :     0.4606547 α      lambda       -0.7105328E-03
   maximum displ.:     0.2202831 α      in ANC's #8, #5, #11, ...

........................................................................
.............................. CYCLE   53 ..............................
........................................................................
   1    -63.9858514 -0.639859E+02  0.109E-01    2.18       0.0  T
   2    -63.9858595 -0.811266E-05  0.643E-02    2.18       1.0  T
   3    -63.9858390  0.205342E-04  0.263E-02    2.17       1.0  T
   4    -63.9858627 -0.237266E-04  0.760E-03    2.17       1.9  T
   5    -63.9858636 -0.890797E-06  0.323E-03    2.17       4.5  T
   6    -63.9858636 -0.317447E-07  0.173E-03    2.17       8.4  T
   7    -63.9858636 -0.306406E-07  0.101E-03    2.17      14.4  T
   8    -63.9858636 -0.922682E-08  0.342E-04    2.17      42.6  T
   9    -63.9858636 -0.152239E-08  0.154E-04    2.17      94.7  T
     SCC iter.                  ...        0 min,  0.017 sec
     gradient                   ...        0 min,  0.012 sec
 * total energy  :   -63.1207081 Eh     change       -0.4889209E-03 Eh
   gradient norm :     0.0097801 Eh/α   predicted    -0.4306562E-03 ( -11.92%)
   displ. norm   :     0.3041978 α      lambda       -0.5385506E-03
   maximum displ.:     0.1132471 α      in ANC's #8, #2, #5, ...

........................................................................
.............................. CYCLE   54 ..............................
........................................................................
   1    -63.9865251 -0.639865E+02  0.730E-02    2.17       0.0  T
   2    -63.9865299 -0.486126E-05  0.422E-02    2.17       1.0  T
   3    -63.9865260  0.394553E-05  0.137E-02    2.17       1.1  T
   4    -63.9865310 -0.504120E-05  0.517E-03    2.17       2.8  T
   5    -63.9865312 -0.192103E-06  0.275E-03    2.17       5.3  T
   6    -63.9865314 -0.160752E-06  0.116E-03    2.17      12.6  T
   7    -63.9865314 -0.113546E-07  0.611E-04    2.17      23.9  T
   8    -63.9865314  0.280728E-09  0.371E-04    2.17      39.3  T
     SCC iter.                  ...        0 min,  0.015 sec
     gradient                   ...        0 min,  0.013 sec
 * total energy  :   -63.1211012 Eh     change       -0.3930997E-03 Eh
   gradient norm :     0.0070923 Eh/α   predicted    -0.2941963E-03 ( -25.16%)
   displ. norm   :     0.4268493 α      lambda       -0.5261801E-03
   maximum displ.:     0.1807880 α      in ANC's #1, #2, #5, ...

........................................................................
.............................. CYCLE   55 ..............................
........................................................................
   1    -63.9875809 -0.639876E+02  0.101E-01    2.18       0.0  T
   2    -63.9875858 -0.488698E-05  0.565E-02    2.18       1.0  T
   3    -63.9875788  0.700123E-05  0.178E-02    2.18       1.0  T
   4    -63.9875871 -0.826244E-05  0.829E-03    2.18       1.8  T
   5    -63.9875879 -0.886297E-06  0.289E-03    2.18       5.0  T
   6    -63.9875880 -0.101296E-06  0.151E-03    2.18       9.7  T
   7    -63.9875881 -0.168438E-07  0.901E-04    2.18      16.2  T
   8    -63.9875881 -0.430268E-08  0.374E-04    2.18      39.0  T
     SCC iter.                  ...        0 min,  0.015 sec
     gradient                   ...        0 min,  0.012 sec
 * total energy  :   -63.1215239 Eh     change       -0.4226557E-03 Eh
   gradient norm :     0.0088728 Eh/α   predicted    -0.3110259E-03 ( -26.41%)
   displ. norm   :     0.5017588 α      lambda       -0.6930554E-03
   maximum displ.:     0.2555506 α      in ANC's #1, #2, #5, ...

........................................................................
.............................. CYCLE   56 ..............................
........................................................................
   1    -63.9902572 -0.639903E+02  0.126E-01    2.19       0.0  T
   2    -63.9902647 -0.755721E-05  0.698E-02    2.19       1.0  T
   3    -63.9902523  0.124574E-04  0.227E-02    2.19       1.0  T
   4    -63.9902668 -0.145704E-04  0.995E-03    2.19       1.5  T
   5    -63.9902679 -0.103961E-05  0.338E-03    2.19       4.3  T
   6    -63.9902681 -0.199920E-06  0.163E-03    2.19       9.0  T
   7    -63.9902681 -0.188166E-07  0.972E-04    2.19      15.0  T
   8    -63.9902681 -0.346931E-08  0.442E-04    2.19      33.0  T
     SCC iter.                  ...        0 min,  0.015 sec
     gradient                   ...        0 min,  0.013 sec
 * total energy  :   -63.1220750 Eh     change       -0.5511024E-03 Eh
   gradient norm :     0.0113938 Eh/α   predicted    -0.4337740E-03 ( -21.29%)
   displ. norm   :     0.7207415 α      lambda       -0.9339392E-03
   maximum displ.:     0.3488424 α      in ANC's #1, #5, #2, ...

........................................................................
.............................. CYCLE   57 ..............................
........................................................................
   1    -63.9884740 -0.639885E+02  0.178E-01    2.22       0.0  T
   2    -63.9884902 -0.161489E-04  0.961E-02    2.23       1.0  T
   3    -63.9884763  0.139011E-04  0.304E-02    2.23       1.0  T
   4    -63.9884922 -0.159247E-04  0.159E-02    2.23       1.0  T
   5    -63.9884965 -0.431041E-05  0.606E-03    2.23       2.4  T
   6    -63.9884970 -0.513569E-06  0.249E-03    2.23       5.9  T
   7    -63.9884971 -0.160996E-07  0.154E-03    2.23       9.5  T
   8    -63.9884971 -0.296510E-07  0.695E-04    2.23      21.0  T
   9    -63.9884971 -0.877166E-08  0.226E-04    2.23      64.6  T
     SCC iter.                  ...        0 min,  0.018 sec
     gradient                   ...        0 min,  0.013 sec
 * total energy  :   -63.1228943 Eh     change       -0.8193463E-03 Eh
   gradient norm :     0.0135917 Eh/α   predicted    -0.7095558E-03 ( -13.40%)
   displ. norm   :     0.6972568 α      lambda       -0.1428710E-02
   maximum displ.:     0.3857817 α      in ANC's #1, #5, #9, ...

........................................................................
.............................. CYCLE   58 ..............................
........................................................................
   1    -63.9893372 -0.639893E+02  0.182E-01    2.26       0.0  T
   2    -63.9893539 -0.167666E-04  0.992E-02    2.27       1.0  T
   3    -63.9893299  0.240204E-04  0.337E-02    2.27       1.0  T
   4    -63.9893551 -0.251904E-04  0.162E-02    2.27       1.0  T
   5    -63.9893606 -0.548579E-05  0.495E-03    2.27       2.9  T
   6    -63.9893608 -0.217145E-06  0.213E-03    2.27       6.8  T
   7    -63.9893608 -0.310684E-07  0.135E-03    2.27      10.8  T
   8    -63.9893609 -0.195928E-07  0.527E-04    2.27      27.7  T
   9    -63.9893609 -0.349312E-08  0.197E-04    2.27      74.1  T
     SCC iter.                  ...        0 min,  0.017 sec
     gradient                   ...        0 min,  0.013 sec
 * total energy  :   -63.1240553 Eh     change       -0.1161011E-02 Eh
   gradient norm :     0.0135527 Eh/α   predicted    -0.1061658E-02 (  -8.56%)
   displ. norm   :     0.7086925 α      lambda       -0.1316488E-02
   maximum displ.:     0.3968495 α      in ANC's #1, #5, #9, ...

........................................................................
.............................. CYCLE   59 ..............................
........................................................................
   1    -63.9842771 -0.639843E+02  0.178E-01    2.29       0.0  T
   2    -63.9842942 -0.171231E-04  0.965E-02    2.29       1.0  T
   3    -63.9842859  0.828389E-05  0.275E-02    2.30       1.0  T
   4    -63.9842945 -0.855138E-05  0.152E-02    2.30       1.0  T
   5    -63.9842990 -0.457564E-05  0.533E-03    2.30       2.7  T
   6    -63.9842995 -0.418382E-06  0.212E-03    2.30       6.9  T
   7    -63.9842995 -0.312886E-07  0.128E-03    2.30      11.4  T
   8    -63.9842995 -0.110465E-07  0.628E-04    2.30      23.2  T
   9    -63.9842995 -0.835168E-08  0.202E-04    2.30      72.2  T
     SCC iter.                  ...        0 min,  0.016 sec
     gradient                   ...        0 min,  0.013 sec
 * total energy  :   -63.1250970 Eh     change       -0.1041660E-02 Eh
   gradient norm :     0.0160398 Eh/α   predicted    -0.9888530E-03 (  -5.07%)
   displ. norm   :     0.5277403 α      lambda       -0.1275882E-02
   maximum displ.:     0.3073782 α      in ANC's #1, #6, #9, ...

........................................................................
.............................. CYCLE   60 ..............................
[...]
H12-C9-C1=110.52               H12-C9-H10=108.44              H12-C9-H11=108.38              
 
 selected dihedral angles (degree)
 ---------------------------------
C3-C2-C1-C9= 78.83            C3-C2-C1-C13=201.60           C3-C2-C1-H14=318.74           H4-C2-C1-C9=316.83            
H4-C2-C1-C13= 79.60           H4-C2-C1-H14=196.74           H5-C2-C1-C9=199.02            H5-C2-C1-C13=321.79           
H5-C2-C1-H14= 78.93           C6-C3-C2-C1= 59.38            C6-C3-C2-H4=181.56            C6-C3-C2-H5=298.67            
H7-C3-C2-C1=297.78            H7-C3-C2-H4= 59.95            H7-C3-C2-H5=177.06            H8-C3-C2-C1=180.58            
H8-C3-C2-H4=302.76            H8-C3-C2-H5= 59.87            C20-C6-C3-C2= 70.25           C20-C6-C3-H7=192.17           
C20-C6-C3-H8=309.93           H40-C6-C3-C2=252.22           H40-C6-C3-H7= 14.14           H40-C6-C3-H8=131.90           
H10-C9-C1-C2=302.57           H10-C9-C1-C13=179.71          H10-C9-C1-H14= 62.32          H11-C9-C1-C2=182.79           
H11-C9-C1-C13= 59.93          H11-C9-C1-H14=302.54          H12-C9-C1-C2= 62.78           H12-C9-C1-C13=299.91          
H12-C9-C1-H14=182.52          
           -------------------------------------------------
          |                Final Singlepoint                |
           -------------------------------------------------

          ...................................................
          :                      SETUP                      :
          :.................................................:
          :  # basis functions                 116          :
          :  # atomic orbitals                 115          :
          :  # shells                           69          :
          :  # electrons                       116          :
          :  max. iterations                   100          :
          :  Hamiltonian                  GFN2-xTB          :
          :  restarted?                      false          :
          :  GBSA solvation                  false          :
          :  PC potential                    false          :
          :  electronic temp.          300.0000000     K    :
          :  accuracy                    1.0000000          :
          :  -> integral cutoff          0.2500000E+02      :
          :  -> integral neglect         0.1000000E-07      :
          :  -> SCF convergence          0.1000000E-05 Eh   :
          :  -> wf. convergence          0.1000000E-03 e    :
          :  Broyden damping             0.4000000          :
          ...................................................

 iter      E             dE          RMSdq      gap      omega  full diag
   1    -63.9995536 -0.639996E+02  0.558E-05    2.43       0.0  T
   2    -63.9995536 -0.115818E-10  0.422E-05    2.43     345.9  T
   3    -63.9995536 -0.357829E-10  0.220E-05    2.43     662.1  T

   *** convergence criteria satisfied after 3 iterations ***

         #    Occupation            Energy/Eh            Energy/eV
      -------------------------------------------------------------
         1        2.0000           -0.7117472             -19.3676
       ...           ...                  ...                  ...
        52        2.0000           -0.4132220             -11.2443
        53        2.0000           -0.4090183             -11.1300
        54        2.0000           -0.3962411             -10.7823
        55        2.0000           -0.3944149             -10.7326
        56        2.0000           -0.3884875             -10.5713
        57        2.0000           -0.3832381             -10.4284
        58        2.0000           -0.3529279              -9.6037 (HOMO)
        59                         -0.2636479              -7.1742 (LUMO)
        60                         -0.2179460              -5.9306
        61                         -0.2100791              -5.7165
        62                         -0.1858627              -5.0576
        63                         -0.1755869              -4.7780
       ...                                ...                  ...
       115                          0.6622397              18.0205
      -------------------------------------------------------------
                  HL-Gap            0.0892801 Eh            2.4294 eV
             Fermi-level           -0.3082879 Eh           -8.3889 eV

 SCC (total)                   0 d,  0 h,  0 min,  0.027 sec
 SCC setup                      ...        0 min,  0.001 sec (  1.943%)
 Dispersion                     ...        0 min,  0.000 sec (  0.941%)
 classical contributions        ...        0 min,  0.000 sec (  0.170%)
 integral evaluation            ...        0 min,  0.007 sec ( 25.977%)
 iterations                     ...        0 min,  0.006 sec ( 21.560%)
 molecular gradient             ...        0 min,  0.013 sec ( 47.982%)
 printout                       ...        0 min,  0.000 sec (  1.338%)

         :::::::::::::::::::::::::::::::::::::::::::::::::::::
         ::                     SUMMARY                     ::
         :::::::::::::::::::::::::::::::::::::::::::::::::::::
         :: total energy             -63.131812886208 Eh    ::
         :: gradient norm              0.000370017890 Eh/a0 ::
         :: HOMO-LUMO gap              2.429434087388 eV    ::
         ::.................................................::
         :: SCC energy               -63.999553554224 Eh    ::
         :: -> isotropic ES            0.054018786815 Eh    ::
         :: -> anisotropic ES          0.003754309550 Eh    ::
         :: -> anisotropic XC          0.030451767929 Eh    ::
         :: -> dispersion             -0.055297672231 Eh    ::
         :: repulsion energy           0.865802130182 Eh    ::
         :: add. restraining           0.000000000000 Eh    ::
         :: total charge              -0.000000000000 e     ::
         :::::::::::::::::::::::::::::::::::::::::::::::::::::

           -------------------------------------------------
          |                Property Printout                |
           -------------------------------------------------

    * Orbital Energies and Occupations

         #    Occupation            Energy/Eh            Energy/eV
      -------------------------------------------------------------
         1        2.0000           -0.7117472             -19.3676
       ...           ...                  ...                  ...
        46        2.0000           -0.4443240             -12.0907
        47        2.0000           -0.4368230             -11.8866
        48        2.0000           -0.4350000             -11.8370
        49        2.0000           -0.4320916             -11.7578
        50        2.0000           -0.4254857             -11.5781
        51        2.0000           -0.4207294             -11.4486
        52        2.0000           -0.4132220             -11.2443
        53        2.0000           -0.4090183             -11.1300
        54        2.0000           -0.3962411             -10.7823
        55        2.0000           -0.3944149             -10.7326
        56        2.0000           -0.3884875             -10.5713
        57        2.0000           -0.3832381             -10.4284
        58        2.0000           -0.3529279              -9.6037 (HOMO)
        59                         -0.2636479              -7.1742 (LUMO)
        60                         -0.2179460              -5.9306
        61                         -0.2100791              -5.7165
        62                         -0.1858627              -5.0576
        63                         -0.1755869              -4.7780
        64                         -0.1446641              -3.9365
        65                         -0.0155837              -0.4241
        66                         -0.0064363              -0.1751
        67                          0.0138943               0.3781
        68                          0.0277591               0.7554
        69                          0.0542318               1.4757
       ...                                ...                  ...
       115                          0.6622397              18.0205
      -------------------------------------------------------------
                  HL-Gap            0.0892801 Eh            2.4294 eV
             Fermi-level           -0.3082879 Eh           -8.3889 eV

     #   Z          covCN         q      C6AA      α(0)
     1   6 C        3.853    -0.014    20.789     6.485
     2   6 C        3.805    -0.062    21.683     6.629
     3   6 C        3.803    -0.056    21.569     6.612
     4   1 H        0.924     0.033     2.550     2.497
     5   1 H        0.925     0.045     2.389     2.417
     6   6 C        2.906    -0.020    28.497     8.753
     7   1 H        0.924     0.040     2.454     2.450
     8   1 H        0.924     0.041     2.437     2.441
     9   6 C        3.755    -0.105    22.570     6.774
    10   1 H        0.925     0.039     2.465     2.455
    11   1 H        0.925     0.035     2.521     2.483
    12   1 H        0.925     0.033     2.542     2.493
    13   6 C        3.810    -0.065    21.730     6.636
    14   1 H        0.924     0.045     2.390     2.418
    15   6 C        2.894    -0.028    28.703     8.784
    16   1 H        0.924     0.038     2.482     2.464
    17   1 H        0.924     0.043     2.410     2.428
    18   6 C        2.894    -0.054    29.344     8.882
    19   6 C        3.750     0.117    18.731     6.172
    20   6 C        2.940    -0.012    28.315     8.727
    21   6 C        2.840     0.238    23.036     7.866
    22   6 C        3.756    -0.110    22.649     6.786
    23   1 H        0.925     0.038     2.473     2.459
    24   1 H        0.925     0.049     2.335     2.390
    25   1 H        0.925     0.070     2.082     2.257
    26   8 O        0.858    -0.380    21.290     6.186
    27   6 C        3.829    -0.087    22.131     6.694
    28   6 C        3.783     0.195    17.535     5.965
    29   1 H        0.924     0.053     2.288     2.365
    30   1 H        0.925     0.065     2.143     2.289
    31  16 S        2.005    -0.245   151.552    20.720
    32   6 C        3.745    -0.051    21.557     6.623
    33   1 H        0.925     0.043     2.413     2.429
    34   1 H        0.926     0.061     2.191     2.315
    35   1 H        0.925     0.074     2.041     2.234
    36   8 O        1.711    -0.314    19.236     5.922
    37   6 C        2.896    -0.050    29.228     8.864
    38   6 C        2.895    -0.031    28.783     8.796
    39   6 C        3.834    -0.060    21.625     6.616
    40   1 H        0.925     0.053     2.279     2.361
    41   1 H        0.926     0.035     2.517     2.481
    42   1 H        0.924     0.042     2.427     2.436
    43   1 H        0.924     0.048     2.344     2.395
    44   1 H        0.923     0.048     2.342     2.393
    45   1 H        0.926     0.039     2.464     2.455
    46   1 H        0.925     0.034     2.532     2.488
    47   1 H        0.926     0.052     2.294     2.368

 Mol. C6AA /au·bohr⁶  :      22078.429273
 Mol. C8AA /au·bohr⁸  :     540227.205339
 Mol. α(0) /au        :        228.151782


Wiberg/Mayer (AO) data.
largest (>0.10) Wiberg bond orders for each atom

 ---------------------------------------------------------------------------
     #   Z sym  total        # sym  WBO       # sym  WBO       # sym  WBO
 ---------------------------------------------------------------------------
     1   6 C    3.992 --     9 C    1.010     2 C    0.996    13 C    0.969
                            14 H    0.964
     2   6 C    3.995 --     1 C    0.996     3 C    0.985     4 H    0.976
                             5 H    0.971
     3   6 C    3.997 --     6 C    1.030     2 C    0.985     7 H    0.976
                             8 H    0.960
     4   1 H    0.998 --     2 C    0.976
     5   1 H    0.998 --     2 C    0.971
     6   6 C    3.986 --    20 C    1.806     3 C    1.030    40 H    0.964
     7   1 H    0.998 --     3 C    0.976
     8   1 H    0.998 --     3 C    0.960
     9   6 C    3.996 --     1 C    1.010    12 H    0.986    11 H    0.986
                            10 H    0.983
    10   1 H    0.998 --     9 C    0.983
    11   1 H    0.999 --     9 C    0.986
    12   1 H    0.999 --     9 C    0.986
    13   6 C    3.995 --    15 C    1.027    16 H    0.974    17 H    0.971
                             1 C    0.969
    14   1 H    0.998 --     1 C    0.964
    15   6 C    3.987 --    18 C    1.924    13 C    1.027    46 H    0.963
    16   1 H    0.998 --    13 C    0.974
    17   1 H    0.998 --    13 C    0.971
    18   6 C    3.984 --    15 C    1.924    19 C    0.978    47 H    0.960
    19   6 C    3.944 --    37 C    1.012    18 C    0.978    44 H    0.942
                            36 O    0.934
    20   6 C    3.986 --     6 C    1.806    21 C    1.033    22 C    1.021
    21   6 C    3.922 --    26 O    1.804    20 C    1.033    27 C    0.969
    22   6 C    3.995 --    20 C    1.021    24 H    0.978    23 H    0.977
                            25 H    0.958
    23   1 H    0.998 --    22 C    0.977
    24   1 H    0.998 --    22 C    0.978
    25   1 H    0.995 --    22 C    0.958
    26   8 O    2.053 --    21 C    1.804
    27   6 C    3.993 --    29 H    0.973    21 C    0.969    28 C    0.968
                            30 H    0.955
    28   6 C    3.942 --    36 O    1.013    39 C    0.977    27 C    0.968
                            31 S    0.896
    29   1 H    0.997 --    27 C    0.973
    30   1 H    0.996 --    27 C    0.955
    31  16 S    2.108 --    32 C    1.010    28 C    0.896
    32   6 C    3.972 --    31 S    1.010    33 H    0.979    34 H    0.977
                            35 H    0.972
    33   1 H    0.998 --    32 C    0.979
    34   1 H    0.996 --    32 C    0.977
    35   1 H    0.994 --    32 C    0.972
    36   8 O    2.132 --    28 C    1.013    19 C    0.934
    37   6 C    3.990 --    38 C    1.924    19 C    1.012    45 H    0.965
    38   6 C    3.988 --    37 C    1.924    39 C    1.022    41 H    0.966
    39   6 C    3.998 --    38 C    1.022    28 C    0.977    42 H    0.964
                            43 H    0.950
    40   1 H    0.997 --     6 C    0.964
    41   1 H    0.998 --    38 C    0.966
    42   1 H    0.998 --    39 C    0.964
    43   1 H    0.998 --    39 C    0.950
    44   1 H    0.997 --    19 C    0.942
    45   1 H    0.998 --    37 C    0.965
    46   1 H    0.999 --    15 C    0.963
    47   1 H    0.997 --    18 C    0.960
 ---------------------------------------------------------------------------

Topologies differ in total number of bonds
Writing topology from bond orders to xtbtopo.mol

molecular dipole:
                 x           y           z       tot (Debye)
 q only:       -0.264      -0.857      -0.557
   full:       -0.677      -0.609      -0.582       2.747
molecular quadrupole (traceless):
                xx          xy          yy          xz          yz          zz
 q only:       -5.662      -8.409      12.911      -2.472      -2.266      -7.249
  q+dip:       -7.279      -4.069      13.638      -1.867      -6.864      -6.359
   full:       -7.277      -3.496      12.773      -2.593      -4.992      -5.496

           -------------------------------------------------
          |                Geometry Summary                 |
           -------------------------------------------------

      molecular mass/u    :      306.4633029
   center of mass at/Å    :        2.7969591      -3.6047572      -0.3665481
  moments of inertia/u·Å² :        0.1266532E+04   0.1868795E+04   0.2370055E+04
rotational constants/cm⁻¹ :        0.1331007E-01   0.9020590E-02   0.7112760E-02

 * 37 selected distances

     #   Z          #   Z                                           value/Å
     1   6 C        2   6 C                                       1.5335121
     2   6 C        3   6 C                                       1.5355037
     2   6 C        4   1 H                                       1.0932170
     2   6 C        5   1 H                                       1.0882099
     3   6 C        7   1 H                                       1.0903388
     3   6 C        8   1 H                                       1.0939291
     1   6 C        9   6 C                                       1.5256840
     9   6 C       10   1 H                                       1.0868756
     9   6 C       11   1 H                                       1.0874574
     9   6 C       12   1 H                                       1.0887261
     1   6 C       14   1 H                                       1.0947316
    13   6 C       16   1 H                                       1.0917239
    13   6 C       17   1 H                                       1.0911407
    15   6 C       18   6 C                                       1.3235309
     6   6 C       20   6 C                                       1.3376325
    22   6 C       23   1 H                                       1.0896158
    22   6 C       24   1 H                                       1.0860554
    22   6 C       25   1 H                                       1.0882652
    21   6 C       26   8 O                                       1.2141329
    27   6 C       28   6 C                                       1.5362082 (max)
    27   6 C       29   1 H                                       1.0919450
    27   6 C       30   1 H                                       1.0900392
    32   6 C       33   1 H                                       1.0853977
    32   6 C       34   1 H                                       1.0854673
    32   6 C       35   1 H                                       1.0858309
    19   6 C       36   8 O                                       1.4352156
    28   6 C       36   8 O                                       1.3909087
    37   6 C       38   6 C                                       1.3219144
    28   6 C       39   6 C                                       1.5320504
     6   6 C       40   1 H                                       1.0820632
    38   6 C       41   1 H                                       1.0800141
    39   6 C       42   1 H                                       1.0902105
    39   6 C       43   1 H                                       1.0962062
    19   6 C       44   1 H                                       1.0994432
    37   6 C       45   1 H                                       1.0790077 (min)
    15   6 C       46   1 H                                       1.0823737
    18   6 C       47   1 H                                       1.0796452

 * 3 distinct bonds (by element types)

   Z      Z             #   av. dist./Å        max./Å        min./Å
   1 H    6 C          26     1.0883819     1.0994432     1.0790077
   6 C    6 C           8     1.4557545     1.5362082     1.3219144
   6 C    8 O           3     1.3467524     1.4352156     1.2141329


optimized geometry written to: xtbopt.xyz


           -------------------------------------------------
          | TOTAL ENERGY              -63.131812886208 Eh   |
          | GRADIENT NORM               0.000370017890 Eh/α |
          | HOMO-LUMO GAP               2.429434087388 eV   |
           -------------------------------------------------

------------------------------------------------------------------------
 * finished run on 2021/06/01 at 21:37:16.935     
------------------------------------------------------------------------
 total:
 * wall-time:     0 d,  0 h,  0 min,  3.591 sec
 *  cpu-time:     0 d,  0 h,  0 min, 14.150 sec
 * ratio c/w:     3.941 speedup
 SCF:
 * wall-time:     0 d,  0 h,  0 min,  0.090 sec
 *  cpu-time:     0 d,  0 h,  0 min,  0.286 sec
 * ratio c/w:     3.192 speedup
 ANC optimizer:
 * wall-time:     0 d,  0 h,  0 min,  3.451 sec
 *  cpu-time:     0 d,  0 h,  0 min, 13.709 sec
 * ratio c/w:     3.972 speedup

