47
 energy: -63.085188168541 gnorm: 0.094075176278 xtb: 6.4.0 (d4b70c2)
C         5.67759000000000   -6.47424000000000    0.20810000000000
C         4.69365000000000   -6.71176000000000    1.39669000000000
C         4.36486000000000   -5.48469000000000    2.28707000000000
H         5.13387000000000   -7.43651000000000    2.11763000000000
H         3.77229000000000   -7.21057000000000    1.02599000000000
C         3.99810000000000   -4.18910000000000    1.59260000000000
H         5.26004000000000   -5.24052000000000    2.89912000000000
H         3.58055000000000   -5.81236000000000    2.99863000000000
C         6.69071000000000   -7.63050000000000    0.13514000000000
H         7.26596000000000   -7.70184000000000    1.08286000000000
H         7.41366000000000   -7.46469000000000   -0.69181000000000
H         6.17087000000000   -8.59936000000000   -0.03417000000000
C         4.95206000000000   -6.41146000000000   -1.17092000000000
H         6.26420000000000   -5.54947000000000    0.39816000000000
C         3.79017000000000   -5.46696000000000   -1.20977000000000
H         4.52435000000000   -7.41453000000000   -1.38959000000000
H         5.68708000000000   -6.17410000000000   -1.97171000000000
C         3.64727000000000   -4.46863000000000   -2.09754000000000
C         2.43537000000000   -3.57647000000000   -2.01737000000000
C         2.77538000000000   -3.59993000000000    1.59434000000000
C         2.61222000000000   -2.27463000000000    0.91653000000000
C         1.59148000000000   -4.25550000000000    2.26226000000000
H         0.67839000000000   -3.62998000000000    2.19781000000000
H         1.80255000000000   -4.39182000000000    3.34420000000000
H         1.38486000000000   -5.24094000000000    1.79560000000000
O         3.55567000000000   -1.49713000000000    0.91575000000000
C         1.35379000000000   -1.90156000000000    0.14058000000000
C         1.73337000000000   -1.45378000000000   -1.32299000000000
H         0.79952000000000   -1.10045000000000    0.66656000000000
H         0.66184000000000   -2.76647000000000    0.11876000000000
S         2.35994000000000    0.28553000000000   -1.20556000000000
C         0.78499000000000    1.19153000000000   -0.95543000000000
H         0.45815000000000    1.65138000000000   -1.91039000000000
H         0.94380000000000    1.97457000000000   -0.18636000000000
H        -0.02787000000000    0.54717000000000   -0.56993000000000
O         2.82770000000000   -2.22871000000000   -1.82296000000000
C         1.51212000000000   -3.65827000000000   -3.18082000000000
C         0.57771000000000   -2.70533000000000   -3.29059000000000
C         0.55930000000000   -1.49385000000000   -2.37001000000000
H         4.80729000000000   -3.70151000000000    1.05543000000000
H        -0.12950000000000   -2.74928000000000   -4.11314000000000
H         0.71043000000000   -0.66320000000000   -3.09211000000000
H        -0.42806000000000   -1.34565000000000   -1.88570000000000
H         1.83143000000000   -3.94775000000000   -1.17078000000000
H         1.57697000000000   -4.46644000000000   -3.90370000000000
H         3.00822000000000   -5.63651000000000   -0.47803000000000
H         4.40022000000000   -4.28974000000000   -2.85992000000000
47
 energy: -63.098522632453 gnorm: 0.032934275421 xtb: 6.4.0 (d4b70c2)
C         5.66825169222799   -6.48665113311381    0.21056044873081
C         4.69814463933531   -6.70235163975548    1.39444979663309
C         4.36025953355908   -5.47217896420575    2.26731391159078
H         5.14452689826623   -7.43517504161313    2.08321543328171
H         3.77608972623891   -7.16746305680876    1.02324921466646
C         3.97616678847760   -4.19619544101068    1.57102481561950
H         5.25368124593960   -5.23847977878565    2.86607406482373
H         3.58042374768513   -5.78418997497430    2.97219259971206
C         6.68928482121613   -7.62749981854829    0.14298921891202
H         7.26193067530187   -7.69978019696097    1.07126083582015
H         7.39533536951483   -7.46868486461668   -0.67639284490625
H         6.18640589353716   -8.58415350149990   -0.02455542846080
C         4.94735434071692   -6.41224145301949   -1.15566233516867
H         6.22383602206492   -5.55331723811375    0.37777001123095
C         3.80437136355778   -5.45439875455840   -1.20765310702585
H         4.54910833048418   -7.41516451804660   -1.37468508597248
H         5.67591215451108   -6.16956485583344   -1.93845350734954
C         3.65246519552031   -4.46515971171460   -2.07980378561297
C         2.43834617373855   -3.58634299691850   -2.00776659325872
C         2.76655813699058   -3.61153673093145    1.56901223991312
C         2.63072436101298   -2.28907904938109    0.88573733326444
C         1.58379708847828   -4.24563492371612    2.25257569036607
H         0.68612693550123   -3.62787361872997    2.18515438227167
H         1.79555336819013   -4.39298084552246    3.31673085924143
H         1.36784255094907   -5.22424693521467    1.81410347817040
O         3.55349294582968   -1.50107650235762    0.92006162659882
C         1.34508127860150   -1.94003989659467    0.12994223167715
C         1.71711489233205   -1.47283168413945   -1.31568995624901
H         0.83141757513515   -1.11753921259730    0.64576284085840
H         0.64940212262950   -2.78783768499216    0.09795104529013
S         2.34661796345833    0.26332281725355   -1.21164896405316
C         0.78673546149775    1.18784443890064   -0.95507878300271
H         0.46517093282974    1.64560702075481   -1.89223849461580
H         0.97560850041632    1.96918306211690   -0.21522139618406
H        -0.00447492701170    0.54057785523061   -0.57467135192481
O         2.81429316027822   -2.23229471163393   -1.79017605063276
C         1.50282442127248   -3.65447414120795   -3.17623574774701
C         0.58382970944996   -2.70416157384624   -3.27621647152514
C         0.56588692026082   -1.50247659501663   -2.36459849444784
H         4.78533977526503   -3.69522359975155    1.05523610624582
H        -0.12754314241460   -2.71596699250123   -4.09174269080217
H         0.70750839740722   -0.64528024589536   -3.04197778484002
H        -0.41000617975687   -1.37991874308213   -1.88169213744194
H         1.85851954808655   -3.95282563322200   -1.14356625087248
H         1.56842591145239   -4.46475888022380   -3.88773196311458
H         3.02471147934887   -5.63018101373611   -0.47912945276917
H         4.39210620061573   -4.26531303986443   -2.84126950694080
47
 energy: -63.101623442624 gnorm: 0.009275807961 xtb: 6.4.0 (d4b70c2)
C         5.66381584360015   -6.47568350691812    0.21170734900357
C         4.68752917052911   -6.69670621184773    1.38102366353632
C         4.36141180337486   -5.46091844542775    2.24573108480792
H         5.12861655155026   -7.42877390447441    2.06182363364755
H         3.76158851266290   -7.13828072337177    1.00863934124051
C         3.95998494590726   -4.20317104408778    1.54026420627976
H         5.25669364821495   -5.22010012611761    2.82824571652380
H         3.58481115497967   -5.76112913838561    2.95054853964055
C         6.68549465798125   -7.61317161947848    0.15251504886346
H         7.25421186062631   -7.67632815390075    1.07506723470084
H         7.38331236457693   -7.45648999198496   -0.66497572895399
H         6.18719923003318   -8.56584252235846   -0.00849229037436
C         4.95501908483768   -6.41751155700146   -1.15468977303164
H         6.20301861381004   -5.53707806638524    0.36683043322596
C         3.81860153346552   -5.45768086152617   -1.21138644753132
H         4.56501328470783   -7.41806315492772   -1.37248697228058
H         5.68455434626987   -6.16836126893990   -1.92478943778287
C         3.65955338424551   -4.46750031797987   -2.07289573638563
C         2.44326523116875   -3.60108818593288   -1.99327471872630
C         2.75243004512013   -3.62604238288637    1.54334640876798
C         2.62538972332562   -2.29206759367118    0.88418881952044
C         1.56618127368137   -4.24132389910017    2.23424811300024
H         0.68505110118905   -3.61253339545113    2.16757688193112
H         1.78999469712416   -4.38621237990158    3.28944466802997
H         1.33489670805416   -5.21626044262728    1.80874973706516
O         3.53945746911459   -1.50587760637020    0.92646738903199
C         1.33326546629840   -1.95663708918294    0.12529398680395
C         1.71791917179986   -1.49316175742944   -1.31016536421934
H         0.84223532314538   -1.12897668535393    0.64285008142523
H         0.64214952544758   -2.79859355738728    0.08870398479220
S         2.36305117367824    0.23648119917593   -1.20947252025349
C         0.80887342983722    1.17557769197573   -0.95560352494878
H         0.48572027032566    1.62549149068089   -1.88802635067322
H         1.02250922440960    1.95834376994533   -0.23530938345865
H         0.02954088671140    0.53240407937274   -0.56626040161487
O         2.81494714989217   -2.24164612171734   -1.77210384972138
C         1.49752494140614   -3.65938300253948   -3.16160682716752
C         0.59515112765994   -2.69925511915988   -3.26311226398918
C         0.56548050518552   -1.51463018323774   -2.34312730819561
H         4.75963246418631   -3.69142969450733    1.02291085445045
H        -0.12428651390099   -2.68472206573728   -4.07091929091033
H         0.68666537489483   -0.63784068136311   -2.99177492514727
H        -0.40677921500472   -1.42632753363356   -1.85472246202235
H         1.87993556561507   -3.96463044013566   -1.11689461023698
H         1.55929037205334   -4.48095200873400   -3.85598844817823
H         3.04190711431431   -5.63491485644631   -0.47952097062504
H         4.39273040189349   -4.23701093353080   -2.83006756986013
47
 energy: -63.102845410167 gnorm: 0.008711503325 xtb: 6.4.0 (d4b70c2)
C         5.66093260090176   -6.47086154685701    0.20762195450724
C         4.67570117040361   -6.69188052095910    1.36782603429595
C         4.35935436989408   -5.45354379364245    2.23063238296375
H         5.10301658726033   -7.43177935353319    2.04664015968272
H         3.74584056341605   -7.11480504098597    0.98667421035819
C         3.94995123537301   -4.20348654125166    1.52188312505604
H         5.26284818020783   -5.20588899254451    2.79513753344737
H         3.58899997566904   -5.74450286610419    2.94550359413624
C         6.69375887556355   -7.59895280163142    0.16527308827211
H         7.25959727705758   -7.64763809250180    1.09055082752933
H         7.38974662944299   -7.44507665780420   -0.65413344547892
H         6.19748190294210   -8.55428507961629    0.01370304122841
C         4.96701079718403   -6.42087933401482   -1.16548161595311
H         6.18658768788782   -5.52586555697061    0.36169960946380
C         3.82679515559462   -5.46762932290707   -1.22389657470920
H         4.58412991942195   -7.42291713242424   -1.38306657411193
H         5.70187396109645   -6.16609643703505   -1.92803459116986
C         3.66258209294602   -4.46849848045282   -2.07392932982485
C         2.44126429186815   -3.61407622573786   -1.97836196951299
C         2.74022334034108   -3.63347337082842    1.52935771035196
C         2.61783546937518   -2.29586785506644    0.88029432240341
C         1.54819257484280   -4.23799287985718    2.21945086617607
H         0.67726643599027   -3.59561441822409    2.15178555177071
H         1.77460960658396   -4.38301764746122    3.27364276617966
H         1.30185605620860   -5.21027648005983    1.79608278506743
O         3.52053263580164   -1.49921482919863    0.94718406796420
C         1.32235688839336   -1.95893176441515    0.12659280660903
C         1.72003963958243   -1.50165100947822   -1.30371878720081
H         0.83618879870298   -1.13226716045393    0.64536726254005
H         0.63479243449350   -2.80138976653632    0.08412456241937
S         2.38976474844723    0.21898735700725   -1.21084482809566
C         0.84188550339697    1.17086312363946   -0.95414229228264
H         0.51035862901361    1.60406057871365   -1.89160349159921
H         1.07607668223061    1.96284070071310   -0.25106961066620
H         0.06941391665313    0.53333229982794   -0.54369468129154
O         2.81180700309076   -2.25104711669265   -1.76034068187021
C         1.48926277953038   -3.67077509434514   -3.14373975700604
C         0.59822015548535   -2.70146075659103   -3.25259818925781
C         0.56230312224918   -1.52457022894498   -2.32541117239733
H         4.73815974541824   -3.68668236230994    0.99175428151714
H        -0.12127208632045   -2.67201247108142   -4.05978956031445
H         0.65102080970442   -0.63366943636700   -2.95868469493804
H        -0.40566561325461   -1.47177498361827   -1.82038497839095
H         1.89026709580909   -3.97929411603339   -1.09516600192723
H         1.55250321383477   -4.49964474155979   -3.82832297482440
H         3.04810563952497   -5.65397043807582   -0.49553051090884
H         4.39098150073927   -4.21283135572829   -2.82832623020812
47
 energy: -63.103873631899 gnorm: 0.009008919674 xtb: 6.4.0 (d4b70c2)
C         5.66019255254668   -6.46382621945461    0.20042700945566
C         4.65784996659622   -6.68710756529599    1.34674740497576
C         4.35786844919457   -5.44672425379882    2.21019541627521
H         5.06379707529772   -7.44116056823511    2.02447239695880
H         3.72338937119116   -7.08910501812935    0.95261334835586
C         3.93582786039130   -4.20372236602418    1.49853415103351
H         5.27311340691503   -5.19369430036877    2.75416093562315
H         3.59857774756381   -5.72927099526918    2.94153135501725
C         6.70803812116616   -7.57957680942176    0.18393005453688
H         7.26917021424182   -7.60381171550769    1.11498683456499
H         7.40727931049908   -7.43166116456701   -0.63515921926990
H         6.22224908107933   -8.54457017918412    0.04733644376298
C         4.98476729175154   -6.42817766003365   -1.18354668129428
H         6.17007276533957   -5.50975410218919    0.35648263113352
C         3.83437067283594   -5.48806118201735   -1.24624413549193
H         4.61572270267347   -7.43506224876716   -1.40537144247450
H         5.72740738260518   -6.16375237000994   -1.93681238612181
C         3.66455850880855   -4.47361041063927   -2.07837972724401
C         2.43514405635105   -3.63373889921974   -1.96126910268680
C         2.72322247867853   -3.63901353072445    1.51835902745377
C         2.59919047915594   -2.28918279803242    0.89913356816938
C         1.52663998169692   -4.23507536810771    2.20663551296793
H         0.66580503322202   -3.57619421180199    2.14430101078175
H         1.75313456628966   -4.39026652130844    3.26041249885623
H         1.26134913980336   -5.19998859012235    1.77547052036871
O         3.49593201502417   -1.48819982691125    0.98539249035689
C         1.31328575941160   -1.95241119071131    0.13277631484413
C         1.72206698078973   -1.51163972330612   -1.29762887406830
H         0.82344794143685   -1.12364227332557    0.64203800654449
H         0.62623154454285   -2.79562376017006    0.08565156865120
S         2.41975242105273    0.19766069718575   -1.22219972638386
C         0.88886229082582    1.17490793428119   -0.95233099807735
H         0.53849434817767    1.58310699038895   -1.89604591546980
H         1.14988164075400    1.98297559487741   -0.27517627986151
H         0.12301209106780    0.55130155423183   -0.50443630735066
O         2.80728166486142   -2.26930812059708   -1.74588194028287
C         1.47768153821970   -3.68761453438812   -3.12246732781322
C         0.59996706112374   -2.70707188299290   -3.24398468618024
C         0.55385339306874   -1.53746772416032   -2.30613410099079
H         4.71246318741090   -3.67618995529461    0.96044181709549
H        -0.11552471987123   -2.66755510790853   -4.05342221751265
H         0.59808331817789   -0.63280370634098   -2.92394872919934
H        -0.40700192170497   -1.52673314252154   -1.77864594309714
H         1.89724961898997   -4.00243087122709   -1.07244936789505
H         1.54194895309381   -4.52378184662122   -3.79811302664849
H         3.04983735109008   -5.69079063845604   -0.52783478158009
H         4.38901530656159   -4.18658941780219   -2.82603740078924
47
 energy: -63.104515265975 gnorm: 0.008605827109 xtb: 6.4.0 (d4b70c2)
C         5.65977256829231   -6.45873162411641    0.19098541604591
C         4.64168311270454   -6.68341831856873    1.32523742638694
C         4.35488064410951   -5.44412456497303    2.19264202458518
H         5.02822220111657   -7.45106923236006    2.00123479232225
H         3.70529504803285   -7.06995832919011    0.91933556223599
C         3.92429719735334   -4.19864983831599    1.49018326456968
H         5.27938616478334   -5.19182473621439    2.72225707426570
H         3.60669141369466   -5.72399334558869    2.93748063419627
C         6.72317644536230   -7.56009304643801    0.20145669443667
H         7.27694531054699   -7.55864352310956    1.13898009951320
H         7.42913263156412   -7.41722690387730   -0.61386426759242
H         6.25312350072547   -8.53613205876216    0.07885816532514
C         5.00133038983389   -6.43609698696347   -1.20324774604471
H         6.15650482078343   -5.49696784774227    0.34874313560202
C         3.83778031911395   -5.51146188474785   -1.27059801090536
H         4.64979468904734   -7.44920939726832   -1.43013288337332
H         5.74935900291302   -6.16044521979214   -1.94866348956024
C         3.66270948217450   -4.48129342843726   -2.08321119731823
C         2.42611531167041   -3.65187944048915   -1.94831006932463
C         2.71011225891320   -3.63665261651579    1.51848925267691
C         2.58266640995837   -2.28140649180386    0.91373608147624
C         1.51108642548967   -4.23376539672399    2.20082747919248
H         0.65523967877246   -3.56596519430100    2.14793940689230
H         1.73398817885654   -4.40583203899595    3.25379147417369
H         1.23515961589854   -5.19012754586437    1.75609048380338
O         3.46929547679780   -1.46932756574002    1.02951785167733
C         1.30443053600696   -1.94218615468216    0.14128992136727
C         1.72194173868529   -1.51772718007497   -1.29218964287255
H         0.80751409083047   -1.10942655909967    0.63906379187958
H         0.61679837630202   -2.78651201197123    0.09422861013042
S         2.44484909029085    0.18111683233577   -1.24100643575305
C         0.93482414579221    1.18442013300195   -0.95413919484966
H         0.56306160065529    1.57423217392825   -1.89836080934453
H         1.22239415352181    2.00543117893793   -0.30227057197183
H         0.17172443728871    0.58224930670549   -0.46851517408956
O         2.80116841634497   -2.28880987307802   -1.73208362205482
C         1.46587464141345   -3.70272197708250   -3.10596551341259
C         0.59699566831202   -2.71550915109365   -3.23732646091452
C         0.54287881381902   -1.55151070049363   -2.29015189982960
H         4.69322246238793   -3.66481642614568    0.94711958508165
H        -0.11065169366445   -2.67280487627670   -4.05282212009143
H         0.55489006601702   -0.64106249189180   -2.89713124068836
H        -0.41007949904729   -1.56782727809177   -1.74854878245212
H         1.89735386881812   -4.02529073115060   -1.05668759842066
H         1.52985949731575   -4.54134003663004   -3.77902530487721
H         3.04611243821448   -5.73364681888450   -0.56530659233387
H         4.38564885218560   -4.16797078136262   -2.82141959976133
47
 energy: -63.104963042138 gnorm: 0.006644280518 xtb: 6.4.0 (d4b70c2)
C         5.65824453525656   -6.45428807322957    0.18062375712983
C         4.62955288871399   -6.67917196787941    1.30636565528322
C         4.35034619706785   -5.44367648599392    2.17996002085940
H         5.00353760987743   -7.45593700656344    1.97935960175349
H         3.69350212169220   -7.05605173616236    0.89207514914879
C         3.91366455115787   -4.19379193049257    1.48643655085716
H         5.28047543959115   -5.19500750077053    2.70150930945372
H         3.61044665123731   -5.72575427331822    2.93239998504303
C         6.73636869109720   -7.54023900373149    0.21588201905881
H         7.28054804101796   -7.51637209445669    1.15923724413550
H         7.45004001200103   -7.39938872852396   -0.59346287255946
H         6.28338750907026   -8.52556788264887    0.10359666522581
C         5.01350781195779   -6.44404985452355   -1.22117240092456
H         6.14303035181825   -5.48574405301895    0.33723256243728
C         3.83697129450331   -5.53476828068192   -1.29282221480850
H         4.68080265254502   -7.46313686426764   -1.45189942899510
H         5.76381970690382   -6.15620373236099   -1.96015286702980
C         3.65804006555133   -4.49054388837605   -2.08606946460679
C         2.41582565895605   -3.66848233049767   -1.94009659111730
C         2.69988633323865   -3.63122526410394    1.52371639875641
C         2.56582176903714   -2.26768917293753    0.93750894401968
C         1.50165644109724   -4.23577728865206    2.20086482885416
H         0.64751942507168   -3.56386142348976    2.16455960708432
H         1.72535717782564   -4.43001410885325    3.25056764882509
H         1.22021433031804   -5.18220416861638    1.73786133539064
O         3.44636059880305   -1.45215233024072    1.06872904143924
C         1.29774796607827   -1.93282408243682    0.15240137591672
C         1.71749205757764   -1.52551414537852   -1.28691147029967
H         0.79496915985904   -1.09273804283237    0.63479548782331
H         0.60803549600517   -2.77673957405153    0.11017561124852
S         2.46049336163210    0.16381371013548   -1.26034649338597
C         0.97557952367067    1.19634951406105   -0.95914767491594
H         0.58711291815067    1.57516775291027   -1.90049860922412
H         1.28944943620638    2.02477375961434   -0.32938397056022
H         0.21281060773128    0.61828928345336   -0.44396018041385
O         2.79351361904825   -2.30877013547211   -1.71821479060041
C         1.45656861258167   -3.71434744416012   -3.09701333669694
C         0.59221791484926   -2.72398608463906   -3.23323781439674
C         0.53283110578891   -1.56360572153304   -2.28087923623919
H         4.68095716637246   -3.65367269916017    0.94782151475944
H        -0.10886356687181   -2.68309253733423   -4.05422143180317
H         0.52582965675600   -0.65018228238269   -2.87928494337204
H        -0.41285131617222   -1.59709998931984   -1.73070606294432
H         1.89122302992048   -4.04767099498203   -1.04851430347897
H         1.51942633351614   -4.55070560718351   -3.77336524266346
H         3.03842824465602   -5.77666732130310   -0.60166930534408
H         4.38266080723496   -4.15568791361404   -2.81213960812346
47
 energy: -63.105291434008 gnorm: 0.006185532803 xtb: 6.4.0 (d4b70c2)
C         5.65537413519173   -6.44657912743696    0.17127952102943
C         4.62119539226089   -6.67526479115958    1.29148519489722
C         4.34510274030313   -5.44441239089931    2.17215787004609
H         4.98958897415822   -7.45756990975233    1.96013236333877
H         3.68572060339199   -7.04620254401594    0.87239864561826
C         3.90686881765130   -4.18724039037139    1.48994063189851
H         5.27633670625996   -5.20061368227866    2.69293434607741
H         3.60833581073665   -5.73217414728145    2.92469205616944
C         6.74616236825257   -7.51765139916823    0.22601828168648
H         7.27982265531109   -7.47558426480813    1.17393997303218
H         7.46716609033491   -7.37499260167200   -0.57625500401829
H         6.31071018946849   -8.51075202346215    0.12014448576667
C         5.01954049719519   -6.45211360717478   -1.23496487849225
H         6.12827323592361   -5.47113522843255    0.32299425393878
C         3.83109173504867   -5.55769218008554   -1.31130227719560
H         4.70552265184866   -7.47636677683344   -1.46774776954562
H         5.76932175153573   -6.15188126375419   -1.96902473516241
C         3.65123096035198   -4.50072110985136   -2.08588940996288
C         2.40559384465033   -3.68287712606592   -1.93607526148925
C         2.69370247345337   -3.62500735351179    1.53058593246084
C         2.55341552551805   -2.25693259228277    0.95369848090681
C         1.49793934393269   -4.24133828375661    2.20311083544983
H         0.64343851772914   -3.56894266203108    2.18700994496131
H         1.72606787942838   -4.45897420794319    3.24732045864125
H         1.21438791707668   -5.17783756303352    1.72151478129368
O         3.42339687018630   -1.43217360757629    1.10702882462909
C         1.29050192864956   -1.92802089857123    0.16175014760878
C         1.71214606425227   -1.53396689096847   -1.28177914598946
H         0.78484907178107   -1.08159581630265    0.63192733789327
H         0.59962614155474   -2.77158673136436    0.12584997384333
S         2.47265311825294    0.14630775724217   -1.27759173745280
C         1.01350425603926    1.20774210390394   -0.96743329011824
H         0.61206631597430    1.57873658968855   -1.90574704444150
H         1.35439067834945    2.04104326055066   -0.35915440671056
H         0.25067052902917    0.65462215563903   -0.42703597673785
O         2.78618486451535   -2.32763610163185   -1.70538982996958
C         1.45013775003842   -3.72193377754162   -3.09498510925531
C         0.58737585889471   -2.73004699106988   -3.23073556961295
C         0.52310096508313   -1.57491228383867   -2.27256883761698
H         4.67623794000194   -3.64358392904322    0.95844964563308
H        -0.10988573813814   -2.69203977987565   -4.05544414614755
H         0.50706319294817   -0.65821507301742   -2.86371896332123
H        -0.41802093996592   -1.61964237528057   -1.71799396136037
H         1.87959991232113   -4.06773518374231   -1.04703493954414
H         1.50989128253744   -4.55375764437646   -3.77776710899889
H         3.02587660920983   -5.81884672968153   -0.63525454178364
H         4.38128251147050   -4.14791082607937   -2.79696004189373
47
 energy: -63.105544637856 gnorm: 0.004628179468 xtb: 6.4.0 (d4b70c2)
C         5.64996890104684   -6.43743129342386    0.16280723272536
C         4.61568894120689   -6.67044529529548    1.28150245596652
C         4.33938540457045   -5.44459256188652    2.16941046103771
H         4.98339476605121   -7.45625343189679    1.94520570670091
H         3.68006194383366   -7.03741241391078    0.86094371903425
C         3.90249543578043   -4.18216821933824    1.49413070454088
H         5.26992442191886   -5.20497219317759    2.69278105371333
H         3.60150376300728   -5.73789533822494    2.91828368130396
C         6.75599449159003   -7.49108132691433    0.23264676606355
H         7.27942980881664   -7.43403711370341    1.18459413011122
H         7.48214267863865   -7.34244081830469   -0.56347925151548
H         6.33719517806395   -8.49067428561999    0.12964306476868
C         5.01998326704310   -6.45980973195539   -1.24568941534486
H         6.10847429063112   -5.45408836278319    0.30710188877140
C         3.82034658878552   -5.58044168811914   -1.32688545336592
H         4.72386059511751   -7.48884602071033   -1.47637633111581
H         5.76737724971976   -6.14855297186990   -1.97673087441458
C         3.64300753270648   -4.51069209948450   -2.08303993824760
C         2.39476249171570   -3.69647522697301   -1.93465330517019
C         2.68962393550579   -3.62112519818758    1.53681970856314
C         2.54178471363441   -2.24794140524898    0.97088864685241
C         1.49695453897347   -4.24983045114211    2.20512117497240
H         0.64290589674019   -3.57657205421375    2.21173405914622
H         1.73412503614809   -4.49188744972436    3.24156699099690
H         1.20964209486414   -5.17517803393656    1.70436676673634
O         3.40239355257557   -1.41839319843544    1.13683064581845
C         1.28292447081118   -1.92676508122457    0.17089962440974
C         1.70589451197391   -1.54425715622332   -1.27548517267855
H         0.77728810151820   -1.07453114352229    0.63050598745259
H         0.59196372204087   -2.77005331460741    0.14151377840023
S         2.48554868575432    0.12618556257709   -1.29020328775306
C         1.05087816382346    1.21571868884882   -0.97709050195070
H         0.63791239893712    1.57671411335932   -1.91462043899037
H         1.41923586545865    2.05478812416524   -0.39291826393887
H         0.28909602538331    0.68797072991260   -0.41081206314764
O         2.77789125562531   -2.34573999314796   -1.69275283397398
C         1.44486940720055   -3.72665777835360   -3.09794132646173
C         0.58235647700788   -2.73358525946708   -3.22918073379275
C         0.51519300392144   -1.58495972019167   -2.26490602390559
H         4.67548536245448   -3.63582010354585    0.97069192694764
H        -0.11186133743684   -2.69399185996813   -4.05716077972186
H         0.49483937857696   -0.66390267257236   -2.84976357312919
H        -0.42380841689864   -1.63741276021148   -1.70840718738953
H         1.86320240944675   -4.08732369364524   -1.05029619816120
H         1.50327042025377   -4.55147344262620   -3.78948106958220
H         3.00795824310390   -5.86109616993309   -0.66736488356213
H         4.38199433235656   -4.14057888514207   -2.77624126772070
47
 energy: -63.105767865125 gnorm: 0.004557717815 xtb: 6.4.0 (d4b70c2)
C         5.64280559545756   -6.42410784700163    0.15544200611222
C         4.61196505969366   -6.66512541771820    1.27512764359485
C         4.33571134577779   -5.44385244137781    2.17004091954212
H         4.98197238708908   -7.45412170295114    1.93331268622032
H         3.67478980787965   -7.02900043087957    0.85597303077806
C         3.90131277339648   -4.17776115689878    1.49941795250520
H         5.26421863001844   -5.20798823504337    2.69868253446660
H         3.59415773747707   -5.74205402819504    2.91327633684430
C         6.76649671385085   -7.45789717176989    0.23634809790849
H         7.28128937483872   -7.38700595661598    1.19149967004025
H         7.49526338866754   -7.29918325791537   -0.55510431474541
H         6.36614871830329   -8.46508207340292    0.13461912091928
C         5.01469879842325   -6.46927336704850   -1.25347596688312
H         6.08384357838709   -5.43146269337851    0.29009259133441