47
 energy: -63.099465041083 gnorm: 0.095584806185 xtb: 6.4.0 (d4b70c2)
C         5.42097000000000   -6.31072000000000    0.09799000000000
C         4.70457000000000   -6.65079000000000    1.43365000000000
C         4.68966000000000   -5.47752000000000    2.44310000000000
H         5.24151000000000   -7.45919000000000    1.97793000000000
H         3.68731000000000   -7.04231000000000    1.21841000000000
C         4.28950000000000   -4.18087000000000    1.79908000000000
H         5.71254000000000   -5.31713000000000    2.84740000000000
H         4.04443000000000   -5.77458000000000    3.29455000000000
C         6.24128000000000   -7.52152000000000   -0.38180000000000
H         6.98265000000000   -7.81873000000000    0.39081000000000
H         6.79703000000000   -7.27166000000000   -1.31067000000000
H         5.57822000000000   -8.39145000000000   -0.58228000000000
C         4.46552000000000   -5.88164000000000   -1.07000000000000
H         6.17196000000000   -5.51713000000000    0.30032000000000
C         3.17018000000000   -5.11864000000000   -0.81458000000000
H         4.07895000000000   -6.81227000000000   -1.54076000000000
H         5.08442000000000   -5.37908000000000   -1.84550000000000
C         2.89732000000000   -3.91774000000000   -1.36840000000000
C         1.48948000000000   -3.31236000000000   -1.36476000000000
C         3.14845000000000   -3.50773000000000    2.01680000000000
C         2.90519000000000   -2.29622000000000    1.17472000000000
C         2.13455000000000   -4.01854000000000    3.01914000000000
H         1.26202000000000   -3.35244000000000    3.14521000000000
H         2.60926000000000   -4.07462000000000    4.02157000000000
H         1.77713000000000   -5.02674000000000    2.72192000000000
O         3.84681000000000   -1.69215000000000    0.67685000000000
C         1.51754000000000   -1.86788000000000    0.81083000000000
C         1.24095000000000   -1.89957000000000   -0.71704000000000
H         1.36365000000000   -0.84599000000000    1.21288000000000
H         0.76812000000000   -2.53438000000000    1.27465000000000
S        -0.58202000000000   -1.50609000000000   -0.88660000000000
C        -0.59686000000000    0.20073000000000   -0.24123000000000
H         0.36663000000000    0.71692000000000   -0.42154000000000
H        -0.83858000000000    0.19238000000000    0.84172000000000
H        -1.36963000000000    0.77434000000000   -0.79243000000000
O         2.04821000000000   -0.94551000000000   -1.39278000000000
C         1.15335000000000   -3.21193000000000   -2.83052000000000
C         1.24181000000000   -2.03794000000000   -3.47258000000000
C         1.67279000000000   -0.76991000000000   -2.75819000000000
H         4.97614000000000   -3.80040000000000    1.04898000000000
H         1.00941000000000   -1.98929000000000   -4.53190000000000
H         2.56021000000000   -0.37873000000000   -3.29688000000000
H         0.87193000000000   -0.00441000000000   -2.83698000000000
H         0.77529000000000   -4.00955000000000   -0.87343000000000
H         0.89082000000000   -4.10695000000000   -3.38699000000000
H         2.39100000000000   -5.63164000000000   -0.25855000000000
H         3.67175000000000   -3.41005000000000   -1.93888000000000
47
 energy: -63.113997759517 gnorm: 0.034115376447 xtb: 6.4.0 (d4b70c2)
C         5.40717049429722   -6.31165351368919    0.09218022085471
C         4.71153742764728   -6.64280901649496    1.42627817372055
C         4.68757540131967   -5.47292874698785    2.42917182202613
H         5.24241857132693   -7.46594650482236    1.92705346448392
H         3.69522220403586   -7.00270232171785    1.22867610648972
C         4.27641442548434   -4.18445617717098    1.79939999424784
H         5.70473635731401   -5.33460127957498    2.82386106535344
H         4.04560517372341   -5.74909188124295    3.27240236722067
C         6.23021299629453   -7.51604008929192   -0.38328715836629
H         6.96556651026290   -7.80636255276338    0.37302630780315
H         6.77442444546481   -7.27783080674266   -1.30098936301793
H         5.58927891111301   -8.38011840428312   -0.57984579996929
C         4.44986223630957   -5.88649183626555   -1.05997145272452
H         6.12838020656393   -5.50354178877751    0.28271759953151
C         3.18501134462378   -5.09742544773786   -0.79396603443217
H         4.09841034110704   -6.81814693370919   -1.53361123390732
H         5.05462584009755   -5.36113832248429   -1.81062624290038
C         2.88784974800995   -3.91171223698695   -1.32723856619224
C         1.48314907255578   -3.32613486389954   -1.36016005598276
C         3.13948980944359   -3.51356831995461    2.01045083965604
C         2.93010310319642   -2.31701099138822    1.15041584694918
C         2.12800862207016   -4.00155982355193    3.01519901032548
H         1.26867128710804   -3.33943841239198    3.12192487545137
H         2.59775662396151   -4.07900900423573    4.00185914281951
H         1.76885919462115   -4.99569455496366    2.73471233706738
O         3.87867920981067   -1.70397501125549    0.69807770909248
C         1.52669110989160   -1.89544993345845    0.80009421919251
C         1.27204278855937   -1.91881249639430   -0.72159724820347
H         1.37771064885788   -0.87315493356036    1.17392399810626
H         0.77134323008720   -2.54256530609420    1.25916996213960
S        -0.54581063336913   -1.50506475625274   -0.89525031312203
C        -0.59273780493687    0.19626701422862   -0.24601938474453
H         0.36997895041754    0.68201803787408   -0.41976209315576
H        -0.83210692889570    0.18874688481905    0.81985271799104
H        -1.36918470413238    0.74228797708351   -0.78833061973944
O         2.02631392943940   -0.94200571518480   -1.39250602580202
C         1.15117283546133   -3.20404938913435   -2.82315210685267
C         1.25519063955268   -2.04326109471100   -3.45679382403217
C         1.67494603623357   -0.78050116400030   -2.75865345249199
H         4.96780615040157   -3.78945095481757    1.06711724312994
H         1.02422851482973   -1.96875743807495   -4.51025775367549
H         2.56408567684745   -0.37242032392961   -3.26236945804846
H         0.87067567640565   -0.02828476307968   -2.84372549562574
H         0.78593242682970   -4.02162278338002   -0.86986807018117
H         0.88176905153520   -4.10006985175030   -3.36503852898731
H         2.41659451741524   -5.62734222732910   -0.24590589145781
H         3.63775833080590   -3.38673794046881   -1.90539885003948
47
 energy: -63.117597863997 gnorm: 0.012017409650 xtb: 6.4.0 (d4b70c2)
C         5.39403503929612   -6.29631614407807    0.08876041700948
C         4.69854961943250   -6.63639574718909    1.41411540551206
C         4.69535204215893   -5.47392726678577    2.42151452747215
H         5.22448877716544   -7.46909188687238    1.88834601797741
H         3.67766168165342   -6.96902878068093    1.22635474081683
C         4.27652001126385   -4.19168676270583    1.79814444832587
H         5.71218193554369   -5.34660781788672    2.80417560232526
H         4.05192606942623   -5.73720721281134    3.25930098806257
C         6.21643904135246   -7.49796318190103   -0.38799507332691
H         6.95088870125648   -7.77892227171707    0.36214195229017
H         6.74815906147771   -7.26336820834794   -1.30541362753408
H         5.57888031367623   -8.35775662645188   -0.57447560834884
C         4.43939142497501   -5.87764344730892   -1.05831435254104
H         6.09863086400017   -5.48010359842151    0.27126567821159
C         3.18239040640912   -5.09553177760731   -0.78643063092183
H         4.09800123932382   -6.80591113410343   -1.53129993820905
H         5.03355661486546   -5.33784064557694   -1.79747182750779
C         2.87434593647349   -3.91343944490563   -1.30384689550962
C         1.47680661094339   -3.33130130860655   -1.34939600228628
C         3.14077140237899   -3.52021823925237    2.00671849982214
C         2.96023474351822   -2.32164004759223    1.14892355184868
C         2.11732034271963   -3.98484730672145    3.00440149720109
H         1.27807447885186   -3.30558989468810    3.09734436232246
H         2.58432185462186   -4.07205260797957    3.98348463387548
H         1.73995989241427   -4.96758513370741    2.73009394764174
O         3.91227241993419   -1.71526366527056    0.71163310954829
C         1.54717587155960   -1.91412856766740    0.78926320260812
C         1.27703637312413   -1.93081291203237   -0.72109673547804
H         1.40345154155328   -0.89085867918356    1.14398316867062
H         0.79724618916637   -2.55681146060268    1.24699165970113
S        -0.55511845125486   -1.53816580636476   -0.89135816911377
C        -0.58193442617161    0.16703678793593   -0.25249977497981
H         0.38207716384287    0.63236523774196   -0.43277529178740
H        -0.81863879564738    0.16735191095616    0.80647182254450
H        -1.35786611413325    0.69533916527865   -0.79601494555095
O         2.01248096374522   -0.95046575068003   -1.37651342090449
C         1.15485218017960   -3.20557933302201   -2.81397038201554
C         1.27983061141338   -2.05094313322063   -3.44382115011502
C         1.69010696845696   -0.79456629138672   -2.74863583817580
H         4.96682580571741   -3.78161645405314    1.07502362285994
H         1.04974712748336   -1.95064987657736   -4.49389971884659
H         2.58583426049521   -0.37497449499685   -3.22045619432840
H         0.88045300465398   -0.05270384474565   -2.84942762085589
H         0.78256257746380   -4.02221183080806   -0.86438455934872
H         0.86397213791028   -4.10289568343751   -3.33903568357873
H         2.42659549627432   -5.62943907683838   -0.22343805070576
H         3.61556898903478   -3.35764974712557   -1.86324136467719
47
 energy: -63.118750912995 gnorm: 0.007520332063 xtb: 6.4.0 (d4b70c2)
C         5.38164159912374   -6.28358225850516    0.08247377516283
C         4.68261974012468   -6.63022659707429    1.40396365191280
C         4.70101069197569   -5.47706480877910    2.42280809368969
H         5.19359828892093   -7.47935881699096    1.86359170855566
H         3.65403576184405   -6.93683157806707    1.21497755445781
C         4.28859828381775   -4.18926203764679    1.80913289465764
H         5.72279701620514   -5.36287342380987    2.79394715903547
H         4.05857661009889   -5.73584847290813    3.26253138104574
C         6.20885129230258   -7.48020589748304   -0.39670492003886
H         6.95097169210933   -7.75198040962508    0.34958675003498
H         6.72789572560913   -7.24477300376447   -1.32158861395915
H         5.56933593573175   -8.34176933263965   -0.57158938831857
C         4.43031857590644   -5.86675763997922   -1.06447046222606
H         6.07848877485392   -5.46303507981620    0.26716681807140
C         3.17418122904196   -5.09601115047473   -0.77839979903995
H         4.09248507690772   -6.79133587193964   -1.54475623379009
H         5.01945875213924   -5.31318203747699   -1.79727177536557
C         2.86619661535790   -3.91175380612772   -1.28765036405646
C         1.46942880715449   -3.34040280772170   -1.34340683332702
C         3.15123021622906   -3.51796803372145    2.01034822341786
C         2.98023913073147   -2.32606017979034    1.14249471041551
C         2.11142025090486   -3.96662110506457    2.99760878218695
H         1.28925788505522   -3.26492445453818    3.08322975613559
H         2.57018360271431   -4.06576000886812    3.97932718902803
H         1.70989428301310   -4.93952669578500    2.71809025241851
O         3.93275595712136   -1.71108260431111    0.72094568443537
C         1.56106670888070   -1.92193992525060    0.78967799106713
C         1.28327586136881   -1.94539935139461   -0.71505707198540
H         1.42294915805948   -0.89773667480456    1.14070708069085
H         0.82154928798007   -2.56951036834985    1.25287505430536
S        -0.56015651597674   -1.57071263472587   -0.87194392476629
C        -0.58240673603410    0.14304074472296   -0.25765309476488
H         0.38735822660254    0.59077444695666   -0.45103518791452
H        -0.80983176111949    0.15223621965071    0.80349949517739
H        -1.35754321811326    0.66640530211969   -0.80583003930641
O         2.00497917294168   -0.95968217914138   -1.36038081339827
C         1.15531344029899   -3.21659723934339   -2.81061331168002
C         1.30267004468436   -2.06336544434207   -3.43953799095031
C         1.70742635161839   -0.80904116964951   -2.73951881756459
H         4.97638287348801   -3.77204478258709    1.08772398904561
H         1.08422973793345   -1.94940542363537   -4.49068435662856
H         2.61127966184894   -0.38420121338425   -3.18910210880028
H         0.89567797068418   -0.07091928512033   -2.85595057616372
H         0.77133446788963   -4.02854251259252   -0.86088509933786
H         0.85127284623653   -4.11381390069147   -3.32737499883677
H         2.41710228509753   -5.63920084386644   -0.22420394768723
H         3.60401834063558   -3.34176565166211   -1.83785826504130
47
 energy: -63.119367820827 gnorm: 0.005962881035 xtb: 6.4.0 (d4b70c2)
C         5.37090686930520   -6.27270971134615    0.07618894010711
C         4.66232626526405   -6.62308063741594    1.39306968044575
C         4.70755683803999   -5.48122321020349    2.42587818008347
H         5.15063559091056   -7.49211848593691    1.84196712284045
H         3.62512036684481   -6.90071896079086    1.19968430073229
C         4.30175987945887   -4.18596965750988    1.82177457938890
H         5.73577284197818   -5.38441407633973    2.78633294107930
H         4.06898982768755   -5.73891724184083    3.27022179943037
C         6.20498239333701   -7.46311970186207   -0.40530586889678
H         6.95968425881879   -7.72498084779246    0.33355154719998
H         6.70954586359505   -7.22589636622254   -1.33928917326098
H         5.56846693023279   -8.33105992981633   -0.56917242139176
C         4.42294194173494   -5.85715614078270   -1.07191757528681
H         6.06151871189742   -5.44767418610886    0.26654453572908
C         3.15968766972238   -5.10380568298620   -0.78323004870136
H         4.09486334448735   -6.77940489767451   -1.56545182527772
H         5.00902347006308   -5.28859562068940   -1.79714356420773
C         2.85739563219076   -3.91325950667350   -1.28100949703018
C         1.46250465815772   -3.34665135903661   -1.33607509979628
C         3.16316385156596   -3.51404178608943    2.01680532888032
C         2.99570988665442   -2.32173719186154    1.14870578930237
C         2.11102057442349   -3.94862796609181    2.99671809913929
H         1.31099539681415   -3.22067064590512    3.09158629822869
H         2.56413057328928   -4.07423811964920    3.97989051768858
H         1.67645542932146   -4.90532385794202    2.70185997696270
O         3.94633107406841   -1.70689028551039    0.72524491007873
C         1.57231142960388   -1.92734562350808    0.79379827196034
C         1.28248676693126   -1.95581024851086   -0.70716430881573
H         1.43572435289031   -0.90144041871408    1.14062589185775
H         0.84214109753866   -2.57815610483307    1.26672773207037
S        -0.57118153287681   -1.59735799532796   -0.85565534867939
C        -0.58819412605830    0.12280796018367   -0.26300436276815
H         0.38586284824859    0.55817573539076   -0.46790364621624
H        -0.80839037171620    0.14445051983861    0.80074021431201
H        -1.36180797644992    0.64548127535271   -0.81470977263144
O         1.99566588593637   -0.96764160403419   -1.34680862245668
C         1.15341358326545   -3.22770928549793   -2.80556277428717
C         1.32372432869217   -2.07821898941153   -3.43697225608103
C         1.72609976578890   -0.82382079469844   -2.73354905517982
H         4.99226688941868   -3.75928692473698    1.10756978164113
H         1.12437100639225   -1.96006884600951   -4.49135367124442
H         2.64020589756142   -0.40255459851362   -3.16481342129463
H         0.91740351767917   -0.08445371899631   -2.86768439162932
H         0.76050686448405   -4.03373713897211   -0.85493672728031
H         0.84282813190171   -4.12499339735944   -3.31700323022658
H         2.39906963397202   -5.65397472039178   -0.24083182435268
H         3.59742186693265   -3.33167900717141   -1.81569795216573
47
 energy: -63.119733474446 gnorm: 0.006657990220 xtb: 6.4.0 (d4b70c2)
C         5.36096034948854   -6.26564985674566    0.07044338805662
C         4.64259156789781   -6.61611675317293    1.38366215151765
C         4.71285576073097   -5.48441471852401    2.42775238430931
H         5.10803462762378   -7.50186504999918    1.82558612863847
H         3.59881818884995   -6.86719537426794    1.18629744075621
C         4.31403957911182   -4.17977799812338    1.83658053618785
H         5.74631441510475   -5.40414546698873    2.77892538159851
H         4.07997840893939   -5.74358702723680    3.27696073377963
C         6.20309194766824   -7.44996497155223   -0.41004004558109
H         6.96798588059337   -7.70117152430295    0.32279367936205
H         6.69686224099154   -7.21070506791463   -1.35012722042616
H         5.57386586380594   -8.32564386296241   -0.56593689598897
C         4.41922404377700   -5.85213359127074   -1.08282474590216
H         6.04775413791009   -5.43796659702235    0.26619180953579
C         3.14821177461737   -5.11332411310393   -0.79341463043290
H         4.10327144589564   -6.77311577892267   -1.58883940421035
H         5.00377336982080   -5.27056694608708   -1.79993915286891
C         2.85148582422946   -3.91490685780213   -1.27627173870647
C         1.45682554542367   -3.35156577082357   -1.32960365252244
C         3.17376528423779   -3.50852036247424    2.02573122778602
C         3.00260026550302   -2.32006879244873    1.15144077815867
C         2.11581381128206   -3.93580472616642    3.00172086653969
H         1.33922700882253   -3.18454515146387    3.12086363102824
H         2.56974968591677   -4.09778891233302    3.98102522088193
H         1.64881362639493   -4.87261048757563    2.68679565260446
O         3.95066133597118   -1.70097512191465    0.72658974436963
C         1.57640463872272   -1.93041307819345    0.79897233394495
C         1.27981917859338   -1.96193685633608   -0.70087185082364
H         1.43866623303655   -0.90383599702578    1.14519463654277
H         0.85129677773759   -2.58270414782361    1.27794900700505
S        -0.57970845964949   -1.61102889041690   -0.84161677429811
C        -0.59664980503971    0.11309720725197   -0.26642711567423
H         0.37758768483235    0.54511803809929   -0.47796393406014
H        -0.81397220501244    0.14531434777057    0.79825704150528
H        -1.37032111539551    0.63364429709867   -0.82121614432822
O         1.98869286187200   -0.97255380775268   -1.33926707196986
C         1.15333768159945   -3.23715192573438   -2.80105875281567
C         1.33975578988083   -2.09211403575779   -3.43561342423364
C         1.74226075194049   -0.83671247626002   -2.73155952170597
H         5.00650889676195   -3.74893466502238    1.12657400957836
H         1.15592279044958   -1.97632430373391   -4.49298287949439
H         2.66613087588659   -0.42607915030188   -3.15124896627320
H         0.94147511205822   -0.09162657343276   -2.88190291094655
H         0.75335097739737   -4.03864040351599   -0.84841734146927
H         0.83949422677670   -4.13429583203296   -3.31008334035625
H         2.38172105515539   -5.67258520947195   -0.26925492336056
H         3.59507006178755   -3.32572565620812   -1.79658534523790
47
 energy: -63.120089722947 gnorm: 0.008587290220 xtb: 6.4.0 (d4b70c2)
C         5.35016440791380   -6.25998965900650    0.06322048584746
C         4.62065788233385   -6.60609508421303    1.37292770411682
C         4.71891265895472   -5.48587271102625    2.42778860329280
H         5.06066041118122   -7.50799493751648    1.80790551243604
H         3.57087090599213   -6.82708778725428    1.17316841054898
C         4.32460255106025   -4.17325207489917    1.84899966261414
H         5.75781230605556   -5.42240817848814    2.76643247268279
H         4.09445464814535   -5.74752339243329    3.28336441894752
C         6.20325300357345   -7.43843751023361   -0.41044396849985
H         6.97557736617906   -7.67582793698263    0.31905556784273
H         6.68910279300091   -7.19831876032294   -1.35462795223061
H         5.58473825387224   -8.32315970533895   -0.55913718994763
C         4.41684590370663   -5.85048592587717   -1.09833688051620
H         6.03235703296197   -5.42899852414917    0.26348370699900
C         3.13663984490880   -5.12645891547302   -0.81172984242972
H         4.11725262060480   -6.77078991032694   -1.61650271503123
H         5.00127043925798   -5.25568315583319   -1.80467295880204
C         2.84545625649155   -3.91662120980421   -1.27024389969339
C         1.45002315288325   -3.35628521912630   -1.32145010482863
C         3.18303223582460   -3.50301267427344    2.03454939581262
C         3.00537281300668   -2.31640188042131    1.15751564253695
C         2.12418006896015   -3.92578798169029    3.01021085434939
H         1.37946721522101   -3.14710135347537    3.17094950039422
H         2.58592719655769   -4.14231742560952    3.97788716759168
H         1.61577589244773   -4.83303565337911    2.66761012865212
O         3.94926669469160   -1.69676777073955    0.72335455601747
C         1.57663207071080   -1.93351013438579    0.80693618098977
C         1.27541610188255   -1.96640595338228   -0.69329139230126
H         1.43535296621933   -0.90655712372337    1.15278543759211
H         0.85504382749836   -2.58676531143763    1.29072678220678
S        -0.58653570554811   -1.61703466572643   -0.83200077558350
C        -0.60804652450230    0.10912684452050   -0.27062920183472
H         0.36428883872495    0.54334604169516   -0.48541810041382
H        -0.82548064204718    0.15070109072860    0.79393242055806
H        -1.38312948748115    0.62546643754918   -0.82865474021282
O         1.98279864747577   -0.97700443261110   -1.33300806236061
C         1.15233636105845   -3.24640404791639   -2.79432029940910
C         1.35313643398520   -2.10644112969440   -3.43250738899906
C         1.76064341373786   -0.85077474094920   -2.73012415230968
H         5.02010136091572   -3.73918128850142    1.14372623021185
H         1.18371037025089   -1.99678864079875   -4.49287850738312
H         2.69682568926942   -0.45816758447195   -3.13999712691142
H         0.97382496391096   -0.09495942555336   -2.89908007290837
H         0.74700035914407   -4.04383038675569   -0.83956931346677
H         0.83790232529272   -4.14355182006500   -3.30271167990911
H         2.36330036186450   -5.69826080495091   -0.31199124241515
H         3.59462371185019   -3.31690758567592   -1.76996327384336
47
 energy: -63.120425547569 gnorm: 0.008357543023 xtb: 6.4.0 (d4b70c2)
C         5.34107482389026   -6.25566221412245    0.05613905975232
C         4.60218813830744   -6.59482632223658    1.36326738742719
C         4.72619927474195   -5.48384850534270    2.42484200525529
H         5.01894184580306   -7.50988845330866    1.79192738485487
H         3.54775567856230   -6.78696849942425    1.16314524891874
C         4.33353627821876   -4.16542396759628    1.85711937994358
H         5.76931223919106   -5.43307158871015    2.75024988505299
H         4.11084685843295   -5.74796126898584    3.28650462408171
C         6.20477829099149   -7.43102807052797   -0.40512785568318
H         6.97841486419472   -7.65439236142106    0.32639182989202
H         6.68940092608113   -7.19347126583729   -1.35008317120733
H         5.59681251649468   -8.32332086367988   -0.54842615401999
C         4.41612216486243   -5.85313103804333   -1.11546285003954
H         6.01871659172254   -5.42109504059407    0.25719136356519
C         3.12772286594741   -5.14073660406984   -0.83482847174639
H         4.13260229717413   -6.77364144055469   -1.64099263895319
H         5.00140042335263   -5.24865367438502   -1.81173505027974
C         2.84056871186212   -3.91851770039324   -1.26291276616040
C         1.44398838386586   -3.35970798263963   -1.31215977828076
C         3.18996765364182   -3.49808582110534    2.04049399911796
C         3.00335329317124   -2.31521641133637    1.15942246269877
C         2.13328978050782   -3.92099259181268    3.01759603693395
H         1.42045245259355   -3.12227840284678    3.22270957573218
H         2.60229383808677   -4.19277110994069    3.96820348831449
H         1.58736934349807   -4.79529316769530    2.65020240024819
O         3.94268468238585   -1.69362375874848    0.71660122176020
C         1.57202065463458   -1.93680983385943    0.81547646089199
C         1.26913802161848   -1.96818780277682   -0.68598218094578
H         1.42620765805817   -0.91060764209703    1.16305293957842
H         0.85283692656141   -2.59187904912053    1.30123961920495
S        -0.59164483144043   -1.61614368866339   -0.82736469747460
C        -0.61857994561516    0.11109144708543   -0.27480909827718
H         0.35094865204631    0.55123349726434   -0.49032512417110
H        -0.83830271044221    0.15932542993211    0.78891112564362
H        -1.39585994917209    0.62167958273647   -0.83574415844186
O         1.97976371393930   -0.98013446968666   -1.32716793768565
C         1.15086877765947   -3.25317454067604   -2.78549865422350
C         1.36182494891350   -2.11735045682125   -3.42674842409210
C         1.77850296684058   -0.86292831102534   -2.72744792036627
H         5.02956212863511   -3.73160922686875    1.15254723207546
H         1.19931252882993   -2.01438144330591   -4.48865619236372
H         2.72733534648380   -0.49197689041087   -3.13023709037337
H         1.00924018284470   -0.09343340261920   -2.91356129752310
H         0.74256809300904   -4.04758967381683   -0.82941765765524
H         0.83463620372745   -4.14998533296595   -3.29410003573038
H         2.34768330117836   -5.72709882900461   -0.36273937436246
H         3.59556311410762   -3.30605123794119   -1.73846615088702
47
 energy: -63.120755647930 gnorm: 0.006056336475 xtb: 6.4.0 (d4b70c2)
C         5.33376355442108   -6.25182789092771    0.04850582935166
C         4.58825363537155   -6.58149564031906    1.35441998879286
C         4.73573628519033   -5.47760561157074    2.41922325201788
H         4.98453632649930   -7.50690500766681    1.77742804149267
H         3.53012087832399   -6.74637732357709    1.15600531806279
C         4.33944340157727   -4.15805151347694    1.85761529066042
H         5.78266410104676   -5.43414183352166    2.72961708957639
H         4.13038742232824   -5.74264697511338    3.28737248600670
C         6.20728367311840   -7.42720894670188   -0.39465084206970
H         6.97581219468252   -7.63702164328897    0.34528407787276
H         6.69789850442811   -7.19651966497080   -1.33763738071011
H         5.60722509209347   -8.32452799438009   -0.53328596078817
C         4.41586024730645   -5.85954679375945   -1.13346271667747
H         6.00642377532472   -5.41290617773769    0.24585818839733
C         3.12151791396968   -5.15479593629918   -0.85949565498651
H         4.14651868898402   -6.78165853076254   -1.66039746237712
H         5.00246595793813   -5.24918285833915   -1.82194096842698
C         2.83706651875542   -3.92017552950832   -1.25191279958819
C         1.43887776259795   -3.36343873440987   -1.30192426542343
C         3.19367881434165   -3.49503553173031    2.04202379611163
C         2.99883346433409   -2.31357614302123    1.16151751183559
C         2.14003745555260   -3.92152738514444    3.02066743213644
H         1.45986033896904   -3.10759890896005    3.26645414951665
H         2.61365723633495   -4.24553906019900    3.94994152665282
H         1.55874728196002   -4.76004963656269    2.63085470341410
O         3.93369285568982   -1.69238908940353    0.70876567222293
C         1.56486021135204   -1.94002674324925    0.82462177434259
C         1.26327670958994   -1.96988052016007   -0.67812930646696
H         1.41371368092780   -0.91536274134721    1.17442550206688
H         0.84805911998530   -2.59844434193589    1.30977671199712
S        -0.59299458990186   -1.61228516051913   -0.82802064912664
C        -0.62633798690916    0.11598246786524   -0.27975174479932
H         0.34079805376686    0.56221139433846   -0.49435731943145
H        -0.84884387365707    0.16750967377280    0.78292889897558
H        -1.40569977196766    0.62039221432806   -0.84321616996172
O         1.98001029301019   -0.98358886139154   -1.31930746909393
C         1.14815149331703   -3.25805209417388   -2.77489947766539
C         1.36559861731970   -2.12443287424721   -3.41751606315569
C         1.79572588870240   -0.87365283907159   -2.72128245987675
H         5.03417970107901   -3.72394139499324    1.15187191917741
H         1.20242605948079   -2.02515162046942   -4.47950084094657
H         2.75636618475693   -0.52485809238545   -3.11818792613384
H         1.04576977964413   -0.08945363584086   -2.92189007728894
H         0.73919725892989   -4.05134077065423   -0.81856460490631
H         0.82699501957927   -4.15344178692235   -3.28384912317693
H         2.33515791397661   -5.75705670406529   -0.41792783747676
H         3.59664685587825   -3.29299520752542   -1.70083004012608
47
 energy: -63.121026184044 gnorm: 0.006870573930 xtb: 6.4.0 (d4b70c2)
C         5.32702498247353   -6.24590966624560    0.03965837090551
C         4.57502070124683   -6.56537013104216    1.34427570745140
C         4.74930500167054   -5.46774972761789    2.41117609123578
H         4.94860355574561   -7.50314135337100    1.76087055914734
H         3.51205554394979   -6.69908149292588    1.14794785212907
C         4.34662308628489   -4.14800780020945    1.85559264432057
H         5.80129947596835   -5.43016806671370    2.70331410942934
H         4.15622495958471   -5.73207152653178    3.28752667305661
C         6.20976391241946   -7.42321383402231   -0.38093111474143
H         6.96913390661298   -7.61969138340352    0.37209982686931
H         6.71159409721833   -7.20279573514068   -1.32040898629995
H         5.61500009944009   -8.32417097298544   -0.51458681357218
C         4.41478535504492   -5.86799700907272   -1.15254719300271
H         5.99343746692529   -5.40114506171170    0.23045202018625