      -----------------------------------------------------------      
     |                   =====================                   |     
     |                           x T B                           |     
     |                   =====================                   |     
     |                         S. Grimme                         |     
     |          Mulliken Center for Theoretical Chemistry        |     
     |                    University of Bonn                     |     
      -----------------------------------------------------------      

   * xtb version 6.4.0 (d4b70c2) compiled by 'ehlert@majestix' on 2021-02-01

   xtb is free software: you can redistribute it and/or modify it under
   the terms of the GNU Lesser General Public License as published by
   the Free Software Foundation, either version 3 of the License, or
   (at your option) any later version.
   
   xtb is distributed in the hope that it will be useful,
   but WITHOUT ANY WARRANTY; without even the implied warranty of
   MERCHANTABILITY or FITNESS FOR A PARTICULAR PURPOSE.  See the
   GNU Lesser General Public License for more details.
   
   Cite this work as:
   * C. Bannwarth, E. Caldeweyher, S. Ehlert, A. Hansen, P. Pracht,
     J. Seibert, S. Spicher, S. Grimme, WIREs Comput. Mol. Sci., 2020,
     e01493. DOI: 10.1002/wcms.1493
   
   for GFN2-xTB:
   * C. Bannwarth, S. Ehlert and S. Grimme., J. Chem. Theory Comput., 2019,
     15, 1652-1671. DOI: 10.1021/acs.jctc.8b01176
   for GFN1-xTB:
   * S. Grimme, C. Bannwarth, P. Shushkov, J. Chem. Theory Comput., 2017,
     13, 1989-2009. DOI: 10.1021/acs.jctc.7b00118
   for GFN0-xTB:
   * P. Pracht, E. Caldeweyher, S. Ehlert, S. Grimme, ChemRxiv, 2019, preprint.
     DOI: 10.26434/chemrxiv.8326202.v1
   for GFN-FF:
   * S. Spicher and S. Grimme, Angew. Chem. Int. Ed., 2020, 59, 15665-15673.
     DOI: 10.1002/anie.202004239
   
   for DFT-D4:
   * E. Caldeweyher, C. Bannwarth and S. Grimme, J. Chem. Phys., 2017,
     147, 034112. DOI: 10.1063/1.4993215
   * E. Caldeweyher, S. Ehlert, A. Hansen, H. Neugebauer, S. Spicher,
     C. Bannwarth and S. Grimme, J. Chem. Phys., 2019, 150, 154122.
     DOI: 10.1063/1.5090222
   * E. Caldeweyher, J.-M. Mewes, S. Ehlert and S. Grimme, Phys. Chem. Chem. Phys.
     2020, 22, 8499-8512. DOI: 10.1039/D0CP00502A
   
   for sTDA-xTB:
   * S. Grimme and C. Bannwarth, J. Chem. Phys., 2016, 145, 054103.
     DOI: 10.1063/1.4959605
   
   in the mass-spec context:
   * V. Asgeirsson, C. Bauer and S. Grimme, Chem. Sci., 2017, 8, 4879.
     DOI: 10.1039/c7sc00601b
   * J. Koopman and S. Grimme, ACS Omega 2019, 4, 12, 15120-15133.
     DOI: 10.1021/acsomega.9b02011
   
   for metadynamics refer to:
   * S. Grimme, J. Chem. Theory Comput., 2019, 155, 2847-2862
     DOI: 10.1021/acs.jctc.9b00143
   
   with help from (in alphabetical order)
   P. Atkinson, C. Bannwarth, F. Bohle, G. Brandenburg, E. Caldeweyher
   M. Checinski, S. Dohm, S. Ehlert, S. Ehrlich, I. Gerasimov, J. Koopman
   C. Lavinge, S. Lehtola, F. März, M. Müller, F. Musil, H. Neugebauer
   J. Pisarek, P. Pracht, J. Seibert, P. Shushkov, S. Spicher, M. Stahn
   T. Strunk, J. Stückrath, T. Rose, and J. Unsleber
   
 * started run on 2021/06/02 at 09:35:10.337     

           -------------------------------------------------
          |                Calculation Setup                |
           -------------------------------------------------

          program call               : xtb -c 0 -u 0 -a 1.0 --iterations 100 --opt normal --namespace WWKDVGUQNGJVIE-QZBKQMLXSA-N /home/zhao922/bin/Github/YARP/version2.0/CONF_GEN/SAAA//opt-folder/WWKDVGUQNGJVIE-QZBKQMLXSA-N.xyz
          hostname                   : bell-a001
          calculation namespace      : WWKDVGUQNGJVIE-QZBKQMLXSA-N
          coordinate file            : /home/zhao922/bin/Github/YARP/version2.0/CONF_GEN/SAAA//opt-folder/WWKDVGUQNGJVIE-QZBKQMLXSA-N.xyz
          omp threads                :                     4
          number of atoms            :                    47
          number of electrons        :                   116
          charge                     :                     0
          spin                       :                   0.0
          first test random number   :      0.29261641757209

   ID    Z sym.   atoms
    1    6 C      1-3, 6, 9, 13, 15, 18-22, 27, 28, 32, 37-39
    2    1 H      4, 5, 7, 8, 10-12, 14, 16, 17, 23-25, 29, 30, 33-35, 40-47
    3    8 O      26, 36
    4   16 S      31

           -------------------------------------------------
          |                 G F N 2 - x T B                 |
           -------------------------------------------------

        Reference                      10.1021/acs.jctc.8b01176
      * Hamiltonian:
        H0-scaling (s, p, d)           1.850000    2.230000    2.230000
        zeta-weighting                 0.500000
      * Dispersion:
        s8                             2.700000
        a1                             0.520000
        a2                             5.000000
        s9                             5.000000
      * Repulsion:
        kExp                           1.500000    1.000000
        rExp                           1.000000
      * Coulomb:
        alpha                          2.000000
        third order                    shell-resolved
        anisotropic                    true
        a3                             3.000000
        a5                             4.000000
        cn-shift                       1.200000
        cn-exp                         4.000000
        max-rad                        5.000000

q/qsh data taken from xtbrestart
CAMM data taken from xtbrestart

          ...................................................
          :                      SETUP                      :
          :.................................................:
          :  # basis functions                 116          :
          :  # atomic orbitals                 115          :
          :  # shells                           69          :
          :  # electrons                       116          :
          :  max. iterations                   100          :
          :  Hamiltonian                  GFN2-xTB          :
          :  restarted?                       true          :
          :  GBSA solvation                  false          :
          :  PC potential                    false          :
          :  electronic temp.          300.0000000     K    :
          :  accuracy                    1.0000000          :
          :  -> integral cutoff          0.2500000E+02      :
          :  -> integral neglect         0.1000000E-07      :
          :  -> SCF convergence          0.1000000E-05 Eh   :
          :  -> wf. convergence          0.1000000E-03 e    :
          :  Broyden damping             0.4000000          :
          ...................................................

 iter      E             dE          RMSdq      gap      omega  full diag
   1    -63.8710313 -0.638710E+02  0.191E+00    2.32       0.0  T
   2    -63.8717976 -0.766258E-03  0.111E+00    2.39       1.0  T
   3    -63.8713157  0.481808E-03  0.154E-01    2.43       1.0  T
   4    -63.8717223 -0.406567E-03  0.928E-02    2.42       1.0  T
   5    -63.8719850 -0.262647E-03  0.293E-02    2.42       1.0  T
   6    -63.8720073 -0.223863E-04  0.943E-03    2.42       1.5  T
   7    -63.8720090 -0.162804E-05  0.453E-03    2.42       3.2  T
   8    -63.8720091 -0.998163E-07  0.260E-03    2.42       5.6  T
   9    -63.8720092 -0.161838E-06  0.738E-04    2.42      19.8  T
  10    -63.8720092 -0.657102E-08  0.258E-04    2.42      56.6  T

   *** convergence criteria satisfied after 10 iterations ***

         #    Occupation            Energy/Eh            Energy/eV
      -------------------------------------------------------------
         1        2.0000           -0.7070724             -19.2404
       ...           ...                  ...                  ...
        52        2.0000           -0.4194705             -11.4144
        53        2.0000           -0.4041362             -10.9971
        54        2.0000           -0.4006035             -10.9010
        55        2.0000           -0.3959058             -10.7731
        56        2.0000           -0.3830183             -10.4225
        57        2.0000           -0.3772575             -10.2657
        58        2.0000           -0.3581260              -9.7451 (HOMO)
        59                         -0.2693027              -7.3281 (LUMO)
        60                         -0.2227479              -6.0613
        61                         -0.2048517              -5.5743
        62                         -0.1931887              -5.2569
        63                         -0.1763234              -4.7980
       ...                                ...                  ...
       115                          0.6349096              17.2768
      -------------------------------------------------------------
                  HL-Gap            0.0888233 Eh            2.4170 eV
             Fermi-level           -0.3137144 Eh           -8.5366 eV

 SCC (total)                   0 d,  0 h,  0 min,  0.039 sec
 SCC setup                      ...        0 min,  0.000 sec (  1.094%)
 Dispersion                     ...        0 min,  0.000 sec (  1.152%)
 classical contributions        ...        0 min,  0.000 sec (  0.135%)
 integral evaluation            ...        0 min,  0.008 sec ( 19.928%)
 iterations                     ...        0 min,  0.020 sec ( 49.544%)
 molecular gradient             ...        0 min,  0.011 sec ( 27.098%)
 printout                       ...        0 min,  0.000 sec (  0.967%)

         :::::::::::::::::::::::::::::::::::::::::::::::::::::
         ::                     SUMMARY                     ::
         :::::::::::::::::::::::::::::::::::::::::::::::::::::
         :: total energy             -63.099465040615 Eh    ::
         :: gradient norm              0.095585077181 Eh/a0 ::
         :: HOMO-LUMO gap              2.417004487205 eV    ::
         ::.................................................::
         :: SCC energy               -63.872009243025 Eh    ::
         :: -> isotropic ES            0.052977065010 Eh    ::
         :: -> anisotropic ES          0.010258149741 Eh    ::
         :: -> anisotropic XC          0.033006212604 Eh    ::
         :: -> dispersion             -0.052618980828 Eh    ::
         :: repulsion energy           0.771568043062 Eh    ::
         :: add. restraining           0.000000000000 Eh    ::
         :: total charge               0.000000000000 e     ::
         :::::::::::::::::::::::::::::::::::::::::::::::::::::

      ----------------------------------------------------------- 
     |                   =====================                   |
     |                        A N C O P T                        |
     |                   =====================                   |
     |               Approximate Normal Coordinate               |
     |                Rational Function Optimizer                |
      ----------------------------------------------------------- 

          ...................................................
          :                      SETUP                      :
          :.................................................:
          :   optimization level            normal          :
          :   max. optcycles                   200          :
          :   ANC micro-cycles                  20          :
          :   degrees of freedom               135          :
          :.................................................:
          :   RF solver                   davidson          :
          :   write xtbopt.log                true          :
          :   linear?                        false          :
          :   energy convergence         0.5000000E-05 Eh   :
          :   grad. convergence          0.1000000E-02 Eh/α :
          :   maximium RF displ.         1.0000000          :
          :   Hlow (freq-cutoff)         0.1000000E-01      :
          :   Hmax (freq-cutoff)         5.0000000          :
          :   S6 in model hess.         20.0000000          :
          ...................................................

generating ANC from model Hessian ...
Using Lindh-Hessian (1995)
 Shifting diagonal of input Hessian by   9.489400997311093E-003
 Lowest  eigenvalues of input Hessian
    0.000000    0.000000    0.000000    0.000000    0.000000    0.000000
    0.010000    0.010282    0.010544    0.010873    0.011546    0.011880
    0.012341    0.012861    0.013319    0.013764    0.014388    0.015282
 Highest eigenvalues
    1.478394    1.536107    1.778464    1.820394    1.847009    2.085480
 

........................................................................
.............................. CYCLE    1 ..............................
........................................................................
   1    -63.8720092 -0.638720E+02  0.112E-04    2.42       0.0  T
   2    -63.8720092 -0.427391E-10  0.762E-05    2.42     191.3  T
   3    -63.8720092 -0.187370E-10  0.558E-05    2.42     261.4  T
     SCC iter.                  ...        0 min,  0.005 sec
     gradient                   ...        0 min,  0.011 sec
 * total energy  :   -63.0994650 Eh     change       -0.4679350E-09 Eh
   gradient norm :     0.0955848 Eh/α   predicted     0.0000000E+00 (-100.00%)
   displ. norm   :     0.3903243 α      lambda       -0.2235891E-01
   maximum displ.:     0.1078924 α      in ANC's #37, #87, #11, ...

........................................................................
.............................. CYCLE    2 ..............................
........................................................................
   1    -63.9472791 -0.639473E+02  0.272E-01    2.44       0.0  T
   2    -63.9474081 -0.128976E-03  0.158E-01    2.40       1.0  T
   3    -63.9472879  0.120172E-03  0.721E-02    2.39       1.0  T
   4    -63.9474315 -0.143580E-03  0.202E-02    2.39       1.0  T
   5    -63.9474438 -0.122803E-04  0.631E-03    2.39       2.3  T
   6    -63.9474443 -0.514541E-06  0.310E-03    2.39       4.7  T
   7    -63.9474444 -0.695198E-07  0.117E-03    2.39      12.4  T
   8    -63.9474444 -0.169446E-08  0.629E-04    2.39      23.2  T
   9    -63.9474444 -0.115207E-07  0.215E-04    2.39      67.9  T
     SCC iter.                  ...        0 min,  0.014 sec
     gradient                   ...        0 min,  0.011 sec
 * total energy  :   -63.1139978 Eh     change       -0.1453272E-01 Eh
   gradient norm :     0.0341154 Eh/α   predicted    -0.1288321E-01 ( -11.35%)
   displ. norm   :     0.3901633 α      lambda       -0.5781040E-02
   maximum displ.:     0.1904176 α      in ANC's #11, #19, #12, ...

........................................................................
.............................. CYCLE    3 ..............................
........................................................................
   1    -63.9819952 -0.639820E+02  0.162E-01    2.43       0.0  T
   2    -63.9820483 -0.531337E-04  0.919E-02    2.40       1.0  T
   3    -63.9820312  0.170742E-04  0.344E-02    2.39       1.0  T
   4    -63.9820500 -0.187631E-04  0.144E-02    2.39       1.0  T
   5    -63.9820559 -0.593468E-05  0.497E-03    2.39       2.9  T
   6    -63.9820562 -0.292872E-06  0.213E-03    2.39       6.9  T
   7    -63.9820563 -0.585886E-07  0.823E-04    2.39      17.7  T
   8    -63.9820563  0.197779E-08  0.539E-04    2.39      27.1  T
     SCC iter.                  ...        0 min,  0.013 sec
     gradient                   ...        0 min,  0.011 sec
 * total energy  :   -63.1175979 Eh     change       -0.3600104E-02 Eh
   gradient norm :     0.0120174 Eh/α   predicted    -0.3330539E-02 (  -7.49%)
   displ. norm   :     0.3316043 α      lambda       -0.1658471E-02
   maximum displ.:     0.2123726 α      in ANC's #11, #19, #12, ...

........................................................................
.............................. CYCLE    4 ..............................
........................................................................
   1    -63.9864964 -0.639865E+02  0.998E-02    2.40       0.0  T
   2    -63.9865081 -0.117371E-04  0.565E-02    2.38       1.0  T
   3    -63.9865047  0.344532E-05  0.167E-02    2.37       1.0  T
   4    -63.9865092 -0.450456E-05  0.735E-03    2.37       2.0  T
   5    -63.9865100 -0.808974E-06  0.323E-03    2.37       4.5  T
   6    -63.9865102 -0.256242E-06  0.119E-03    2.37      12.2  T
   7    -63.9865103 -0.206624E-07  0.424E-04    2.37      34.4  T
   8    -63.9865103 -0.436906E-09  0.261E-04    2.37      55.9  T
     SCC iter.                  ...        0 min,  0.013 sec
     gradient                   ...        0 min,  0.011 sec
 * total energy  :   -63.1187509 Eh     change       -0.1153049E-02 Eh
   gradient norm :     0.0075203 Eh/α   predicted    -0.9206005E-03 ( -20.16%)
   displ. norm   :     0.3372954 α      lambda       -0.9021012E-03
   maximum displ.:     0.2069720 α      in ANC's #11, #15, #5, ...

........................................................................
.............................. CYCLE    5 ..............................
........................................................................
   1    -63.9853092 -0.639853E+02  0.909E-02    2.38       0.0  T
   2    -63.9853147 -0.545732E-05  0.522E-02    2.37       1.0  T
   3    -63.9853042  0.104501E-04  0.191E-02    2.36       1.0  T
   4    -63.9853154 -0.111657E-04  0.754E-03    2.36       1.9  T
   5    -63.9853167 -0.127610E-05  0.262E-03    2.36       5.6  T
   6    -63.9853168 -0.105540E-06  0.108E-03    2.36      13.4  T
   7    -63.9853168 -0.169927E-07  0.496E-04    2.36      29.4  T
   8    -63.9853168 -0.190954E-08  0.292E-04    2.36      49.9  T
     SCC iter.                  ...        0 min,  0.013 sec
     gradient                   ...        0 min,  0.011 sec
 * total energy  :   -63.1193678 Eh     change       -0.6169078E-03 Eh
   gradient norm :     0.0059628 Eh/α   predicted    -0.5023774E-03 ( -18.57%)
   displ. norm   :     0.2975754 α      lambda       -0.4906144E-03
   maximum displ.:     0.1481447 α      in ANC's #11, #15, #5, ...

........................................................................
.............................. CYCLE    6 ..............................
........................................................................
   1    -63.9835504 -0.639836E+02  0.770E-02    2.36       0.0  T
   2    -63.9835521 -0.174560E-05  0.450E-02    2.35       1.0  T
   3    -63.9835354  0.166830E-04  0.211E-02    2.35       1.0  T
   4    -63.9835541 -0.186673E-04  0.424E-03    2.35       3.4  T
   5    -63.9835543 -0.175129E-06  0.138E-03    2.35      10.6  T
   6    -63.9835543 -0.185540E-07  0.732E-04    2.35      19.9  T
   7    -63.9835543 -0.111123E-07  0.348E-04    2.35      42.0  T
     SCC iter.                  ...        0 min,  0.012 sec
     gradient                   ...        0 min,  0.011 sec
 * total energy  :   -63.1197335 Eh     change       -0.3656536E-03 Eh
   gradient norm :     0.0066578 Eh/α   predicted    -0.2670353E-03 ( -26.97%)
   displ. norm   :     0.3498357 α      lambda       -0.4814440E-03
   maximum displ.:     0.1428925 α      in ANC's #15, #8, #11, ...

........................................................................
.............................. CYCLE    7 ..............................
........................................................................
   1    -63.9822265 -0.639822E+02  0.899E-02    2.34       0.0  T
   2    -63.9822279 -0.140689E-05  0.532E-02    2.34       1.0  T
   3    -63.9822015  0.263899E-04  0.261E-02    2.34       1.0  T
   4    -63.9822308 -0.293174E-04  0.332E-03    2.34       4.4  T
   5    -63.9822309 -0.557991E-07  0.136E-03    2.34      10.7  T
   6    -63.9822309 -0.137007E-07  0.696E-04    2.34      21.0  T
   7    -63.9822309 -0.121322E-07  0.351E-04    2.34      41.5  T
     SCC iter.                  ...        0 min,  0.012 sec
     gradient                   ...        0 min,  0.011 sec
 * total energy  :   -63.1200897 Eh     change       -0.3562485E-03 Eh
   gradient norm :     0.0085868 Eh/α   predicted    -0.2702048E-03 ( -24.15%)
   displ. norm   :     0.3385970 α      lambda       -0.4468231E-03
   maximum displ.:     0.1659207 α      in ANC's #8, #15, #10, ...

........................................................................
.............................. CYCLE    8 ..............................
........................................................................
   1    -63.9825538 -0.639826E+02  0.927E-02    2.33       0.0  T
   2    -63.9825554 -0.160040E-05  0.548E-02    2.34       1.0  T
   3    -63.9825347  0.206928E-04  0.233E-02    2.34       1.0  T
   4    -63.9825575 -0.228355E-04  0.304E-03    2.34       4.8  T
   5    -63.9825576 -0.112656E-06  0.137E-03    2.34      10.6  T
   6    -63.9825577 -0.177081E-07  0.632E-04    2.34      23.1  T
   7    -63.9825577 -0.852580E-08  0.312E-04    2.34      46.8  T
     SCC iter.                  ...        0 min,  0.012 sec
     gradient                   ...        0 min,  0.010 sec
 * total energy  :   -63.1204255 Eh     change       -0.3358246E-03 Eh
   gradient norm :     0.0083570 Eh/α   predicted    -0.2490307E-03 ( -25.85%)
   displ. norm   :     0.3319075 α      lambda       -0.4360084E-03
   maximum displ.:     0.1925905 α      in ANC's #8, #10, #15, ...

........................................................................
.............................. CYCLE    9 ..............................
........................................................................
   1    -63.9846866 -0.639847E+02  0.969E-02    2.33       0.0  T
   2    -63.9846885 -0.186118E-05  0.569E-02    2.34       1.0  T
   3    -63.9846756  0.128658E-04  0.192E-02    2.34       1.0  T
   4    -63.9846899 -0.142593E-04  0.315E-03    2.34       4.6  T
   5    -63.9846900 -0.133586E-06  0.135E-03    2.34      10.8  T
   6    -63.9846900 -0.223676E-07  0.683E-04    2.34      21.4  T
   7    -63.9846900 -0.107505E-07  0.309E-04    2.34      47.2  T
     SCC iter.                  ...        0 min,  0.011 sec
     gradient                   ...        0 min,  0.011 sec
 * total energy  :   -63.1207556 Eh     change       -0.3301004E-03 Eh
   gradient norm :     0.0060560 Eh/α   predicted    -0.2420251E-03 ( -26.68%)
   displ. norm   :     0.3824979 α      lambda       -0.3755593E-03
   maximum displ.:     0.2324758 α      in ANC's #8, #19, #10, ...

........................................................................
.............................. CYCLE   10 ..............................
........................................................................
   1    -63.9848359 -0.639848E+02  0.110E-01    2.33       0.0  T
   2    -63.9848377 -0.180309E-05  0.642E-02    2.34       1.0  T
   3    -63.9848290  0.864515E-05  0.161E-02    2.34       1.0  T
   4    -63.9848387 -0.965940E-05  0.326E-03    2.34       4.5  T
   5    -63.9848388 -0.147049E-06  0.119E-03    2.34      12.2  T
   6    -63.9848388 -0.141446E-07  0.628E-04    2.34      23.2  T
   7    -63.9848389 -0.931764E-08  0.290E-04    2.34      50.4  T
     SCC iter.                  ...        0 min,  0.011 sec
     gradient                   ...        0 min,  0.010 sec
 * total energy  :   -63.1210262 Eh     change       -0.2705361E-03 Eh
   gradient norm :     0.0068693 Eh/α   predicted    -0.2152550E-03 ( -20.43%)
   displ. norm   :     0.3358661 α      lambda       -0.4485066E-03
   maximum displ.:     0.2241373 α      in ANC's #8, #19, #21, ...

........................................................................
.............................. CYCLE   11 ..............................
........................................................................
   1    -63.9915116 -0.639915E+02  0.104E-01    2.33       0.0  T
   2    -63.9915182 -0.666503E-05  0.601E-02    2.34       1.0  T
   3    -63.9915128  0.540536E-05  0.142E-02    2.34       1.0  T
   4    -63.9915186 -0.583427E-05  0.521E-03    2.34       2.8  T
   5    -63.9915195 -0.840782E-06  0.166E-03    2.34       8.8  T
   6    -63.9915195 -0.247974E-08  0.907E-04    2.34      16.1  T
   7    -63.9915195 -0.196070E-07  0.416E-04    2.34      35.1  T
     SCC iter.                  ...        0 min,  0.011 sec
     gradient                   ...        0 min,  0.011 sec
 * total energy  :   -63.1211402 Eh     change       -0.1140086E-03 Eh
   gradient norm :     0.0095620 Eh/α   predicted    -0.2495523E-03 ( 118.89%)
   displ. norm   :     0.3828595 α      lambda       -0.4285796E-03
   maximum displ.:     0.2181526 α      in ANC's #8, #15, #19, ...

........................................................................
.............................. CYCLE   12 ..............................
........................................................................
   1    -63.9851863 -0.639852E+02  0.105E-01    2.34       0.0  T
   2    -63.9851946 -0.830717E-05  0.611E-02    2.34       1.0  T
   3    -63.9851926  0.202129E-05  0.106E-02    2.33       1.4  T
   4    -63.9851944 -0.174828E-05  0.588E-03    2.33       2.5  T
   5    -63.9851956 -0.118640E-05  0.158E-03    2.33       9.2  T
   6    -63.9851956 -0.512703E-08  0.602E-04    2.33      24.2  T
   7    -63.9851956 -0.822905E-08  0.308E-04    2.33      47.3  T
     SCC iter.                  ...        0 min,  0.011 sec
     gradient                   ...        0 min,  0.011 sec
 * total energy  :   -63.1213027 Eh     change       -0.1624971E-03 Eh
   gradient norm :     0.0080656 Eh/α   predicted    -0.2457011E-03 (  51.20%)
   displ. norm   :     0.1358765 α      lambda       -0.1721706E-03
   maximum displ.:     0.0794373 α      in ANC's #8, #10, #15, ...

........................................................................
.............................. CYCLE   13 ..............................
........................................................................
   1    -63.9880402 -0.639880E+02  0.448E-02    2.33       0.0  T
   2    -63.9880414 -0.116238E-05  0.262E-02    2.33       1.0  T
   3    -63.9880399  0.147910E-05  0.705E-03    2.33       2.1  T
   4    -63.9880415 -0.162130E-05  0.240E-03    2.33       6.1  T
   5    -63.9880417 -0.158914E-06  0.721E-04    2.33      20.2  T
   6    -63.9880417 -0.470799E-09  0.344E-04    2.33      42.4  T
     SCC iter.                  ...        0 min,  0.010 sec
     gradient                   ...        0 min,  0.011 sec
 * total energy  :   -63.1213999 Eh     change       -0.9720201E-04 Eh
   gradient norm :     0.0034866 Eh/α   predicted    -0.8767612E-04 (  -9.80%)
   displ. norm   :     0.1443334 α      lambda       -0.1102725E-03
   maximum displ.:     0.0646217 α      in ANC's #11, #8, #3, ...

........................................................................
.............................. CYCLE   14 ..............................
........................................................................
   1    -63.9879976 -0.639880E+02  0.426E-02    2.33       0.0  T
   2    -63.9879980 -0.321280E-06  0.249E-02    2.33       1.0  T
   3    -63.9879964  0.153885E-05  0.641E-03    2.33       2.3  T
   4    -63.9879981 -0.171731E-05  0.146E-03    2.33      10.0  T
   5    -63.9879982 -0.289900E-07  0.560E-04    2.33      26.1  T
   6    -63.9879982 -0.616756E-08  0.259E-04    2.33      56.4  T
     SCC iter.                  ...        0 min,  0.010 sec
     gradient                   ...        0 min,  0.011 sec
 * total energy  :   -63.1214895 Eh     change       -0.8958917E-04 Eh
   gradient norm :     0.0021171 Eh/α   predicted    -0.5628574E-04 ( -37.17%)
   displ. norm   :     0.4028531 α      lambda       -0.2170659E-03
   maximum displ.:     0.1786329 α      in ANC's #8, #11, #16, ...

........................................................................
.............................. CYCLE   15 ..............................
........................................................................
   1    -63.9870802 -0.639871E+02  0.107E-01    2.32       0.0  T
   2    -63.9870821 -0.191095E-05  0.629E-02    2.32       1.0  T
   3    -63.9870796  0.248039E-05  0.924E-03    2.32       1.6  T
   4    -63.9870825 -0.286617E-05  0.330E-03    2.32       4.4  T
   5    -63.9870827 -0.228022E-06  0.127E-03    2.32      11.5  T
   6    -63.9870827 -0.276610E-07  0.545E-04    2.32      26.8  T
   7    -63.9870827 -0.393796E-08  0.299E-04    2.32      48.8  T
     SCC iter.                  ...        0 min,  0.011 sec
     gradient                   ...        0 min,  0.011 sec
 * total energy  :   -63.1216357 Eh     change       -0.1462312E-03 Eh
   gradient norm :     0.0051367 Eh/α   predicted    -0.1261471E-03 ( -13.73%)
   displ. norm   :     0.3079177 α      lambda       -0.1400637E-03
   maximum displ.:     0.1174398 α      in ANC's #8, #3, #11, ...

........................................................................
.............................. CYCLE   16 ..............................
........................................................................
   1    -63.9855331 -0.639855E+02  0.830E-02    2.32       0.0  T
   2    -63.9855337 -0.654833E-06  0.487E-02    2.32       1.0  T
   3    -63.9855334  0.293089E-06  0.449E-03    2.32       3.2  T
   4    -63.9855339 -0.493223E-06  0.190E-03    2.32       7.7  T
   5    -63.9855340 -0.372100E-07  0.958E-04    2.32      15.2  T
   6    -63.9855340 -0.276912E-07  0.320E-04    2.32      45.5  T
     SCC iter.                  ...        0 min,  0.010 sec
     gradient                   ...        0 min,  0.011 sec
 * total energy  :   -63.1217440 Eh     change       -0.1082853E-03 Eh
   gradient norm :     0.0056513 Eh/α   predicted    -0.7667216E-04 ( -29.19%)
   displ. norm   :     0.4190474 α      lambda       -0.2579950E-03
   maximum displ.:     0.1954068 α      in ANC's #3, #1, #4, ...

........................................................................
.............................. CYCLE   17 ..............................
........................................................................
   1    -63.9868248 -0.639868E+02  0.101E-01    2.31       0.0  T
   2    -63.9868259 -0.109920E-05  0.597E-02    2.32       1.0  T
   3    -63.9868255  0.366276E-06  0.580E-03    2.32       2.5  T
   4    -63.9868263 -0.784001E-06  0.202E-03    2.32       7.2  T
   5    -63.9868263  0.145650E-08  0.119E-03    2.32      12.3  T
   6    -63.9868263 -0.335895E-07  0.442E-04    2.32      33.0  T
   7    -63.9868263 -0.179030E-08  0.225E-04    2.32      65.0  T
     SCC iter.                  ...        0 min,  0.011 sec
     gradient                   ...        0 min,  0.011 sec
 * total energy  :   -63.1219569 Eh     change       -0.2129446E-03 Eh
   gradient norm :     0.0060515 Eh/α   predicted    -0.1516499E-03 ( -28.78%)
   displ. norm   :     0.6810163 α      lambda       -0.4206606E-03
   maximum displ.:     0.2922810 α      in ANC's #3, #1, #11, ...

........................................................................
.............................. CYCLE   18 ..............................
........................................................................
   1    -63.9830415 -0.639830E+02  0.158E-01    2.30       0.0  T
   2    -63.9830453 -0.374111E-05  0.928E-02    2.30       1.0  T
   3    -63.9830407  0.453214E-05  0.132E-02    2.30       1.1  T
   4    -63.9830463 -0.555280E-05  0.419E-03    2.30       3.5  T
   5    -63.9830466 -0.281136E-06  0.189E-03    2.30       7.7  T
   6    -63.9830466 -0.639339E-07  0.690E-04    2.30      21.1  T
   7    -63.9830466 -0.420874E-08  0.329E-04    2.30      44.4  T
     SCC iter.                  ...        0 min,  0.011 sec
     gradient                   ...        0 min,  0.011 sec
 * total energy  :   -63.1223103 Eh     change       -0.3533445E-03 Eh
   gradient norm :     0.0077381 Eh/α   predicted    -0.3078783E-03 ( -12.87%)
   displ. norm   :     0.6386466 α      lambda       -0.7118103E-03
   maximum displ.:     0.2831252 α      in ANC's #3, #1, #6, ...

........................................................................
.............................. CYCLE   19 ..............................
........................................................................
   1    -63.9873431 -0.639873E+02  0.131E-01    2.30       0.0  T
   2    -63.9873494 -0.630456E-05  0.765E-02    2.30       1.0  T
   3    -63.9873421  0.724757E-05  0.160E-02    2.30       1.0  T
   4    -63.9873504 -0.828487E-05  0.474E-03    2.30       3.1  T
   5    -63.9873510 -0.587079E-06  0.181E-03    2.30       8.0  T
   6    -63.9873510 -0.361905E-07  0.727E-04    2.30      20.1  T
   7    -63.9873511 -0.691421E-08  0.282E-04    2.30      51.7  T
     SCC iter.                  ...        0 min,  0.011 sec
     gradient                   ...        0 min,  0.011 sec
 * total energy  :   -63.1227089 Eh     change       -0.3985944E-03 Eh
   gradient norm :     0.0151094 Eh/α   predicted    -0.5010691E-03 (  25.71%)
   displ. norm   :     0.6745750 α      lambda       -0.7620989E-03
   maximum displ.:     0.3060475 α      in ANC's #3, #1, #11, ...

........................................................................
.............................. CYCLE   20 ..............................
........................................................................
   1    -63.9821743 -0.639822E+02  0.144E-01    2.28       0.0  T
   2    -63.9821832 -0.891581E-05  0.836E-02    2.28       1.0  T
   3    -63.9821672  0.159808E-04  0.217E-02    2.29       1.0  T
   4    -63.9821844 -0.171840E-04  0.660E-03    2.29       2.2  T
   5    -63.9821858 -0.137820E-05  0.205E-03    2.29       7.1  T
   6    -63.9821858 -0.620166E-08  0.102E-03    2.29      14.3  T
   7    -63.9821858 -0.212401E-07  0.416E-04    2.29      35.1  T
   8    -63.9821858 -0.150378E-08  0.226E-04    2.29      64.5  T
     SCC iter.                  ...        0 min,  0.013 sec
     gradient                   ...        0 min,  0.011 sec
 * total energy  :   -63.1231656 Eh     change       -0.4567360E-03 Eh
   gradient norm :     0.0134764 Eh/α   predicted    -0.5544468E-03 (  21.39%)
   displ. norm   :     0.2440068 α      lambda       -0.6342027E-03
   maximum displ.:     0.1111139 α      in ANC's #11, #1, #6, ...
 * RMSD in coord.:     0.7386482 α      energy gain  -0.2370058E-01 Eh

generating ANC from model Hessian ...
Using Lindh-Hessian (1995)
 Shifting diagonal of input Hessian by   9.344595308291737E-003
 Lowest  eigenvalues of input Hessian
    0.000000    0.000000    0.000000    0.000000    0.000000    0.000000
    0.010000    0.010158    0.010546    0.010904    0.011464    0.011875
    0.012492    0.013133    0.013696    0.014197    0.014638    0.015800
 Highest eigenvalues
    1.528711    1.650653    1.899302    1.912791    1.941129    2.159918
 

........................................................................
.............................. CYCLE   21 ..............................
........................................................................
   1    -63.9898388 -0.639898E+02  0.594E-02    2.28       0.0  T
   2    -63.9898432 -0.437307E-05  0.347E-02    2.28       1.0  T
   3    -63.9898406  0.258419E-05  0.106E-02    2.28       1.4  T
   4    -63.9898436 -0.298398E-05  0.420E-03    2.28       3.5  T
   5    -63.9898441 -0.441061E-06  0.144E-03    2.28      10.2  T
   6    -63.9898441 -0.227038E-07  0.582E-04    2.28      25.1  T
   7    -63.9898441 -0.491064E-08  0.305E-04    2.28      47.8  T
     SCC iter.                  ...        0 min,  0.011 sec
     gradient                   ...        0 min,  0.011 sec
 * total energy  :   -63.1234804 Eh     change       -0.3147822E-03 Eh
   gradient norm :     0.0134923 Eh/α   predicted     0.0000000E+00 (-100.00%)
   displ. norm   :     0.1003122 α      lambda       -0.4170679E-03
   maximum displ.:     0.0402444 α      in ANC's #3, #11, #2, ...

........................................................................
.............................. CYCLE   22 ..............................
........................................................................
   1    -63.9895660 -0.639896E+02  0.391E-02    2.28       0.0  T
   2    -63.9895672 -0.120482E-05  0.226E-02    2.28       1.0  T
   3    -63.9895663  0.920298E-06  0.618E-03    2.28       2.4  T
   4    -63.9895673 -0.103248E-05  0.215E-03    2.28       6.8  T
   5    -63.9895675 -0.134163E-06  0.687E-04    2.28      21.2  T
   6    -63.9895675 -0.216313E-08  0.223E-04    2.28      65.3  T
     SCC iter.                  ...        0 min,  0.010 sec
     gradient                   ...        0 min,  0.011 sec
 * total energy  :   -63.1237734 Eh     change       -0.2930265E-03 Eh
   gradient norm :     0.0043545 Eh/α   predicted    -0.2106331E-03 ( -28.12%)
   displ. norm   :     0.1722916 α      lambda       -0.2497846E-03
   maximum displ.:     0.0815244 α      in ANC's #3, #2, #11, ...

........................................................................
.............................. CYCLE   23 ..............................
........................................................................
   1    -63.9891360 -0.639891E+02  0.449E-02    2.27       0.0  T
   2    -63.9891368 -0.836074E-06  0.259E-02    2.27       1.0  T
   3    -63.9891339  0.297616E-05  0.949E-03    2.28       1.5  T
   4    -63.9891372 -0.334247E-05  0.182E-03    2.28       8.0  T
   5    -63.9891373 -0.669538E-07  0.694E-04    2.28      21.0  T
   6    -63.9891373 -0.613298E-09  0.367E-04    2.28      39.7  T
     SCC iter.                  ...        0 min,  0.010 sec
     gradient                   ...        0 min,  0.010 sec
 * total energy  :   -63.1239558 Eh     change       -0.1823448E-03 Eh
   gradient norm :     0.0037040 Eh/α   predicted    -0.1286127E-03 ( -29.47%)
   displ. norm   :     0.2621116 α      lambda       -0.2372864E-03
   maximum displ.:     0.1272026 α      in ANC's #3, #2, #6, ...

........................................................................
.............................. CYCLE   24 ..............................
........................................................................
   1    -63.9884998 -0.639885E+02  0.591E-02    2.26       0.0  T
   2    -63.9885006 -0.805472E-06  0.341E-02    2.27       1.0  T
   3    -63.9884938  0.683294E-05  0.137E-02    2.27       1.1  T
   4    -63.9885014 -0.760513E-05  0.196E-03    2.27       7.4  T
   5    -63.9885014 -0.563087E-07  0.841E-04    2.27      17.3  T
   6    -63.9885014 -0.611787E-08  0.407E-04    2.27      35.8  T
     SCC iter.                  ...        0 min,  0.010 sec
     gradient                   ...        0 min,  0.011 sec
 * total energy  :   -63.1241542 Eh     change       -0.1984434E-03 Eh
   gradient norm :     0.0074190 Eh/α   predicted    -0.1268092E-03 ( -36.10%)
   displ. norm   :     0.4666895 α      lambda       -0.3932774E-03
   maximum displ.:     0.2236826 α      in ANC's #3, #6, #1, ...

........................................................................
.............................. CYCLE   25 ..............................
........................................................................
   1    -63.9871533 -0.639872E+02  0.971E-02    2.25       0.0  T
   2    -63.9871549 -0.161199E-05  0.562E-02    2.25       1.0  T
   3    -63.9871343  0.206189E-04  0.236E-02    2.26       1.0  T
   4    -63.9871572 -0.228763E-04  0.286E-03    2.26       5.1  T
   5    -63.9871573 -0.107116E-06  0.127E-03    2.26      11.5  T
   6    -63.9871573 -0.166081E-07  0.560E-04    2.26      26.0  T
   7    -63.9871573 -0.791647E-08  0.249E-04    2.26      58.6  T
     SCC iter.                  ...        0 min,  0.011 sec
     gradient                   ...        0 min,  0.011 sec
 * total energy  :   -63.1244891 Eh     change       -0.3348597E-03 Eh
   gradient norm :     0.0091792 Eh/α   predicted    -0.2394678E-03 ( -28.49%)
   displ. norm   :     0.5885180 α      lambda       -0.4970993E-03
   maximum displ.:     0.2820733 α      in ANC's #3, #6, #1, ...

........................................................................
.............................. CYCLE   26 ..............................
........................................................................
   1    -63.9857257 -0.639857E+02  0.113E-01    2.24       0.0  T
   2    -63.9857274 -0.173974E-05  0.654E-02    2.24       1.0  T
   3    -63.9857019  0.255119E-04  0.260E-02    2.25       1.0  T
   4    -63.9857301 -0.281618E-04  0.292E-03    2.25       5.0  T
   5    -63.9857302 -0.121599E-06  0.127E-03    2.24      11.5  T
   6    -63.9857302 -0.135378E-07  0.514E-04    2.24      28.4  T
   7    -63.9857302 -0.572768E-08  0.248E-04    2.24      58.8  T
     SCC iter.                  ...        0 min,  0.011 sec
     gradient                   ...        0 min,  0.011 sec
 * total energy  :   -63.1248908 Eh     change       -0.4017018E-03 Eh
   gradient norm :     0.0084117 Eh/α   predicted    -0.3346377E-03 ( -16.69%)
   displ. norm   :     0.5218721 α      lambda       -0.4788870E-03
   maximum displ.:     0.2495227 α      in ANC's #3, #6, #1, ...

........................................................................
.............................. CYCLE   27 ..............................
........................................................................
   1    -63.9870855 -0.639871E+02  0.909E-02    2.24       0.0  T
   2    -63.9870867 -0.123466E-05  0.531E-02    2.24       1.0  T
   3    -63.9870787  0.804468E-05  0.148E-02    2.24       1.0  T
   4    -63.9870876 -0.887315E-05  0.239E-03    2.24       6.1  T
   5    -63.9870877 -0.129364E-06  0.948E-04    2.24      15.4  T
   6    -63.9870877 -0.639711E-08  0.328E-04    2.24      44.5  T
     SCC iter.                  ...        0 min,  0.010 sec
     gradient                   ...        0 min,  0.011 sec
 * total energy  :   -63.1252526 Eh     change       -0.3618481E-03 Eh
   gradient norm :     0.0062584 Eh/α   predicted    -0.3046598E-03 ( -15.80%)
   displ. norm   :     0.3697465 α      lambda       -0.3547982E-03
   maximum displ.:     0.1663502 α      in ANC's #3, #6, #1, ...

........................................................................
.............................. CYCLE   28 ..............................
........................................................................
   1    -63.9909043 -0.639909E+02  0.639E-02    2.23       0.0  T
   2    -63.9909056 -0.124071E-05  0.373E-02    2.23       1.0  T
   3    -63.9909024  0.319896E-05  0.101E-02    2.23       1.4  T
   4    -63.9909060 -0.361780E-05  0.238E-03    2.23       6.1  T
   5    -63.9909061 -0.102314E-06  0.817E-04    2.23      17.9  T
   6    -63.9909061 -0.491210E-08  0.222E-04    2.23      65.6  T
     SCC iter.                  ...        0 min,  0.010 sec
     gradient                   ...        0 min,  0.011 sec
 * total energy  :   -63.1254998 Eh     change       -0.2471732E-03 Eh
   gradient norm :     0.0053123 Eh/α   predicted    -0.2016846E-03 ( -18.40%)
   displ. norm   :     0.3947047 α      lambda       -0.2150643E-03
   maximum displ.:     0.1751572 α      in ANC's #3, #1, #6, ...

........................................................................
.............................. CYCLE   29 ..............................
........................................................................
   1    -63.9897685 -0.639898E+02  0.679E-02    2.22       0.0  T
   2    -63.9897693 -0.791080E-06  0.398E-02    2.22       1.0  T
   3    -63.9897644  0.487839E-05  0.116E-02    2.22       1.3  T
   4    -63.9897699 -0.543047E-05  0.202E-03    2.22       7.2  T
   5    -63.9897699 -0.382626E-07  0.743E-04    2.22      19.6  T
   6    -63.9897699 -0.636712E-08  0.297E-04    2.22      49.2  T
     SCC iter.                  ...        0 min,  0.010 sec
     gradient                   ...        0 min,  0.011 sec
 * total energy  :   -63.1256554 Eh     change       -0.1556323E-03 Eh
   gradient norm :     0.0052509 Eh/α   predicted    -0.1242982E-03 ( -20.13%)
   displ. norm   :     0.3012608 α      lambda       -0.2462756E-03
   maximum displ.:     0.1329611 α      in ANC's #1, #5, #6, ...

........................................................................
.............................. CYCLE   30 ..............................
........................................................................
   1    -63.9927149 -0.639927E+02  0.599E-02    2.22       0.0  T
   2    -63.9927160 -0.105117E-05  0.346E-02    2.22       1.0  T
   3    -63.9927114  0.456385E-05  0.121E-02    2.22       1.2  T
   4    -63.9927167 -0.524221E-05  0.281E-03    2.22       5.2  T
   5    -63.9927167 -0.445435E-07  0.109E-03    2.22      13.4  T
   6    -63.9927167 -0.299006E-07  0.425E-04    2.22      34.3  T
   7    -63.9927167 -0.316083E-08  0.247E-04    2.22      59.0  T
     SCC iter.                  ...        0 min,  0.011 sec
     gradient                   ...        0 min,  0.011 sec
 * total energy  :   -63.1258056 Eh     change       -0.1502052E-03 Eh
   gradient norm :     0.0054431 Eh/α   predicted    -0.1343436E-03 ( -10.56%)
   displ. norm   :     0.3405697 α      lambda       -0.1631044E-03
   maximum displ.:     0.1649137 α      in ANC's #1, #3, #6, ...

........................................................................
.............................. CYCLE   31 ..............................
........................................................................
   1    -63.9899265 -0.639899E+02  0.558E-02    2.22       0.0  T
   2    -63.9899272 -0.758874E-06  0.327E-02    2.22       1.0  T
   3    -63.9899241  0.307357E-05  0.957E-03    2.22       1.5  T
   4    -63.9899276 -0.346171E-05  0.190E-03    2.22       7.7  T
   5    -63.9899276 -0.298716E-07  0.835E-04    2.22      17.5  T
   6    -63.9899276 -0.980122E-08  0.418E-04    2.22      34.9  T
     SCC iter.                  ...        0 min,  0.010 sec
     gradient                   ...        0 min,  0.011 sec
 * total energy  :   -63.1259179 Eh     change       -0.1122285E-03 Eh
   gradient norm :     0.0045021 Eh/α   predicted    -0.9101241E-04 ( -18.90%)
   displ. norm   :     0.2078896 α      lambda       -0.1514724E-03
   maximum displ.:     0.0997274 α      in ANC's #4, #1, #9, ...

........................................................................
.............................. CYCLE   32 ..............................
........................................................................
   1    -63.9901072 -0.639901E+02  0.390E-02    2.23       0.0  T
   2    -63.9901079 -0.687086E-06  0.228E-02    2.23       1.0  T
   3    -63.9901073  0.604681E-06  0.500E-03    2.23       2.9  T
   4    -63.9901080 -0.716895E-06  0.179E-03    2.23       8.2  T
   5    -63.9901080 -0.639443E-07  0.703E-04    2.23      20.8  T
   6    -63.9901080 -0.751920E-08  0.289E-04    2.23      50.4  T
     SCC iter.                  ...        0 min,  0.010 sec
     gradient                   ...        0 min,  0.011 sec
 * total energy  :   -63.1260251 Eh     change       -0.1072561E-03 Eh
   gradient norm :     0.0033706 Eh/α   predicted    -0.7909289E-04 ( -26.26%)
   displ. norm   :     0.1954445 α      lambda       -0.9479393E-04
   maximum displ.:     0.1039582 α      in ANC's #1, #4, #5, ...

........................................................................
.............................. CYCLE   33 ..............................
........................................................................
   1    -63.9905762 -0.639906E+02  0.371E-02    2.24       0.0  T
   2    -63.9905767 -0.462921E-06  0.214E-02    2.24       1.0  T
   3    -63.9905762  0.502886E-06  0.465E-03    2.24       3.1  T
   4    -63.9905768 -0.576105E-06  0.184E-03    2.24       7.9  T
   5    -63.9905768 -0.607342E-07  0.643E-04    2.24      22.7  T
   6    -63.9905768 -0.933205E-08  0.264E-04    2.24      55.2  T
     SCC iter.                  ...        0 min,  0.010 sec
     gradient                   ...        0 min,  0.011 sec
 * total energy  :   -63.1260932 Eh     change       -0.6811711E-04 Eh
   gradient norm :     0.0028666 Eh/α   predicted    -0.4921232E-04 ( -27.75%)
   displ. norm   :     0.1484063 α      lambda       -0.6253189E-04
   maximum displ.:     0.0876689 α      in ANC's #1, #4, #5, ...

........................................................................
.............................. CYCLE   34 ..............................
........................................................................
   1    -63.9914779 -0.639915E+02  0.325E-02    2.24       0.0  T
   2    -63.9914782 -0.320840E-06  0.184E-02    2.25       1.0  T
   3    -63.9914781  0.994679E-07  0.324E-03    2.25       4.5  T
   4    -63.9914782 -0.105139E-06  0.176E-03    2.25       8.3  T
   5    -63.9914783 -0.666508E-07  0.505E-04    2.25      28.9  T
   6    -63.9914783 -0.819644E-08  0.175E-04    2.25      83.4  T
     SCC iter.                  ...        0 min,  0.010 sec
     gradient                   ...        0 min,  0.011 sec
 * total energy  :   -63.1261382 Eh     change       -0.4495788E-04 Eh
   gradient norm :     0.0022528 Eh/α   predicted    -0.3196213E-04 ( -28.91%)
   displ. norm   :     0.1509328 α      lambda       -0.4532476E-04
   maximum displ.:     0.1003328 α      in ANC's #1, #4, #10, ...

........................................................................
.............................. CYCLE   35 ..............................
........................................................................
   1    -63.9917200 -0.639917E+02  0.335E-02    2.25       0.0  T
   2    -63.9917203 -0.291950E-06  0.189E-02    2.25       1.0  T
   3    -63.9917203  0.174221E-07  0.297E-03    2.25       4.9  T
   4    -63.9917203  0.317013E-08  0.179E-03    2.25       8.2  T
   5    -63.9917204 -0.901176E-07  0.423E-04    2.25      34.5  T
   6    -63.9917204 -0.602900E-08  0.145E-04    2.25     100.3  T
     SCC iter.                  ...        0 min,  0.010 sec
     gradient                   ...        0 min,  0.011 sec
 * total energy  :   -63.1261719 Eh     change       -0.3369533E-04 Eh
   gradient norm :     0.0018217 Eh/α   predicted    -0.2318298E-04 ( -31.20%)
   displ. norm   :     0.1747820 α      lambda       -0.3619110E-04
   maximum displ.:     0.1172255 α      in ANC's #1, #4, #2, ...

........................................................................
.............................. CYCLE   36 ..............................
........................................................................
   1    -63.9922848 -0.639923E+02  0.445E-02    2.25       0.0  T
   2    -63.9922855 -0.643825E-06  0.246E-02    2.25       1.0  T
   3    -63.9922851  0.385531E-06  0.538E-03    2.25       2.7  T
   4    -63.9922854 -0.345989E-06  0.312E-03    2.25       4.7  T
   5    -63.9922856 -0.224982E-06  0.442E-04    2.25      33.0  T
   6    -63.9922856 -0.454739E-08  0.171E-04    2.25      85.4  T
     SCC iter.                  ...        0 min,  0.010 sec
     gradient                   ...        0 min,  0.011 sec
 * total energy  :   -63.1262062 Eh     change       -0.3427825E-04 Eh
   gradient norm :     0.0021517 Eh/α   predicted    -0.1834340E-04 ( -46.49%)
   displ. norm   :     0.0891417 α      lambda       -0.2552907E-04
   maximum displ.:     0.0613535 α      in ANC's #1, #4, #22, ...

........................................................................
.............................. CYCLE   37 ..............................
........................................................................
   1    -63.9918088 -0.639918E+02  0.208E-02    2.25       0.0  T
   2    -63.9918089 -0.148023E-06  0.115E-02    2.25       1.3  T
   3    -63.9918089 -0.927699E-08  0.191E-03    2.25       7.6  T
   4    -63.9918089  0.137316E-07  0.115E-03    2.25      12.7  T
   5    -63.9918090 -0.342971E-07  0.272E-04    2.25      53.6  T
   6    -63.9918090 -0.234197E-08  0.868E-05    2.25     168.1  T
     SCC iter.                  ...        0 min,  0.010 sec
     gradient                   ...        0 min,  0.011 sec
 * total energy  :   -63.1262269 Eh     change       -0.2075229E-04 Eh
   gradient norm :     0.0017721 Eh/α   predicted    -0.1286628E-04 ( -38.00%)
   displ. norm   :     0.2483957 α      lambda       -0.4452871E-04
   maximum displ.:     0.1587693 α      in ANC's #1, #4, #2, ...

........................................................................
.............................. CYCLE   38 ..............................
........................................................................
   1    -63.9908042 -0.639908E+02  0.580E-02    2.24       0.0  T
   2    -63.9908055 -0.129049E-05  0.315E-02    2.24       1.0  T
   3    -63.9908055  0.561055E-07  0.609E-03    2.24       2.4  T
   4    -63.9908054  0.280929E-07  0.388E-03    2.24       3.8  T
   5    -63.9908058 -0.354265E-06  0.865E-04    2.24      16.9  T
   6    -63.9908058 -0.235809E-07  0.236E-04    2.24      61.8  T
     SCC iter.                  ...        0 min,  0.010 sec
     gradient                   ...        0 min,  0.011 sec
 * total energy  :   -63.1262677 Eh     change       -0.4073120E-04 Eh
   gradient norm :     0.0020440 Eh/α   predicted    -0.2287673E-04 ( -43.83%)
   displ. norm   :     0.0938338 α      lambda       -0.1888119E-04
   maximum displ.:     0.0534015 α      in ANC's #1, #2, #4, ...

........................................................................
.............................. CYCLE   39 ..............................
........................................................................
   1    -63.9910478 -0.639910E+02  0.205E-02    2.24       0.0  T
   2    -63.9910480 -0.164976E-06  0.111E-02    2.24       1.3  T
   3    -63.9910478  0.123288E-06  0.280E-03    2.24       5.2  T
   4    -63.9910480 -0.109554E-06  0.160E-03    2.24       9.1  T
   5    -63.9910480 -0.617356E-07  0.262E-04    2.24      55.7  T
   6    -63.9910480 -0.198748E-08  0.958E-05    2.24     152.3  T
     SCC iter.                  ...        0 min,  0.010 sec
     gradient                   ...        0 min,  0.011 sec
 * total energy  :   -63.1262838 Eh     change       -0.1610214E-04 Eh
   gradient norm :     0.0014917 Eh/α   predicted    -0.9526098E-05 ( -40.84%)
   displ. norm   :     0.2919917 α      lambda       -0.3829344E-04
   maximum displ.:     0.1676726 α      in ANC's #1, #2, #4, ...

........................................................................
.............................. CYCLE   40 ..............................
........................................................................
   1    -63.9913014 -0.639913E+02  0.605E-02    2.24       0.0  T
   2    -63.9913027 -0.138992E-05  0.334E-02    2.24       1.0  T
   3    -63.9913012  0.157644E-05  0.900E-03    2.24       1.6  T
   4    -63.9913028 -0.165807E-05  0.450E-03    2.24       3.2  T
   5    -63.9913032 -0.390313E-06  0.845E-04    2.24      17.3  T
   6    -63.9913032 -0.221315E-07  0.322E-04    2.24      45.3  T
     SCC iter.                  ...        0 min,  0.010 sec
     gradient                   ...        0 min,  0.011 sec
 * total energy  :   -63.1263157 Eh     change       -0.3191527E-04 Eh
   gradient norm :     0.0015664 Eh/α   predicted    -0.1987316E-04 ( -37.73%)
   displ. norm   :     0.1005079 α      lambda       -0.1429651E-04
   maximum displ.:     0.0544593 α      in ANC's #2, #1, #7, ...

........................................................................
.............................. CYCLE   41 ..............................
........................................................................
   1    -63.9920291 -0.639920E+02  0.218E-02    2.24       0.0  T
   2    -63.9920292 -0.161096E-06  0.123E-02    2.24       1.2  T
   3    -63.9920283  0.894927E-06  0.550E-03    2.24       2.7  T
   4    -63.9920294 -0.102910E-05  0.129E-03    2.24      11.3  T
   5    -63.9920294 -0.107346E-07  0.387E-04    2.24      37.7  T
   6    -63.9920294 -0.392846E-08  0.181E-04    2.24      80.5  T
     SCC iter.                  ...        0 min,  0.010 sec
     gradient                   ...        0 min,  0.011 sec
 * total energy  :   -63.1263308 Eh     change       -0.1516004E-04 Eh
   gradient norm :     0.0018332 Eh/α   predicted    -0.7182789E-05 ( -52.62%)
   displ. norm   :     0.1544044 α      lambda       -0.2091413E-04
   maximum displ.:     0.0752790 α      in ANC's #2, #1, #7, ...

........................................................................
.............................. CYCLE   42 ..............................
........................................................................
   1    -63.9923581 -0.639924E+02  0.330E-02    2.24       0.0  T
   2    -63.9923584 -0.342318E-06  0.188E-02    2.24       1.0  T
   3    -63.9923569  0.151923E-05  0.712E-03    2.24       2.0  T
   4    -63.9923586 -0.174861E-05  0.188E-03    2.24       7.7  T
   5    -63.9923587 -0.295029E-07  0.534E-04    2.24      27.3  T
   6    -63.9923587 -0.712181E-08  0.275E-04    2.24      53.0  T
     SCC iter.                  ...        0 min,  0.010 sec
     gradient                   ...        0 min,  0.011 sec
 * total energy  :   -63.1263528 Eh     change       -0.2194070E-04 Eh
   gradient norm :     0.0011413 Eh/α   predicted    -0.1057141E-04 ( -51.82%)
   displ. norm   :     0.1407656 α      lambda       -0.1169513E-04
   maximum displ.:     0.0793725 α      in ANC's #2, #1, #7, ...
 * RMSD in coord.:     0.6112481 α      energy gain  -0.3187152E-02 Eh

generating ANC from model Hessian ...
Using Lindh-Hessian (1995)
 Shifting diagonal of input Hessian by   9.334362935307578E-003
 Lowest  eigenvalues of input Hessian
    0.000000    0.000000    0.000000    0.000000    0.000000    0.000000
    0.010000    0.010148    0.010583    0.011085    0.011435    0.011755
    0.012603    0.013413    0.013591    0.014103    0.015101    0.015912
 Highest eigenvalues
    1.526462    1.646078    1.890242    1.915044    1.940185    2.159355
 

........................................................................
.............................. CYCLE   43 ..............................
........................................................................
   1    -63.9918901 -0.639919E+02  0.283E-02    2.24       0.0  T
   2    -63.9918904 -0.287866E-06  0.159E-02    2.24       1.0  T
   3    -63.9918896  0.786960E-06  0.544E-03    2.24       2.7  T
   4    -63.9918905 -0.907134E-06  0.184E-03    2.24       7.9  T
   5    -63.9918905 -0.376338E-07  0.476E-04    2.24      30.6  T
   6    -63.9918905 -0.604042E-08  0.224E-04    2.24      65.1  T
     SCC iter.                  ...        0 min,  0.010 sec
     gradient                   ...        0 min,  0.011 sec
 * total energy  :   -63.1263638 Eh     change       -0.1103036E-04 Eh
   gradient norm :     0.0010087 Eh/α   predicted     0.0000000E+00 (-100.00%)
   displ. norm   :     0.0236124 α      lambda       -0.5459162E-05
   maximum displ.:     0.0137755 α      in ANC's #2, #8, #14, ...

........................................................................
.............................. CYCLE   44 ..............................
........................................................................
   1    -63.9919808 -0.639920E+02  0.645E-03    2.24       0.0  T
   2    -63.9919808 -0.309573E-07  0.374E-03    2.24       3.9  T
   3    -63.9919808  0.332921E-07  0.114E-03    2.24      12.8  T
   4    -63.9919809 -0.374341E-07  0.381E-04    2.24      38.3  T
   5    -63.9919809 -0.401871E-08  0.143E-04    2.24     102.2  T
     SCC iter.                  ...        0 min,  0.008 sec
     gradient                   ...        0 min,  0.011 sec
 * total energy  :   -63.1263692 Eh     change       -0.5361603E-05 Eh
   gradient norm :     0.0004031 Eh/α   predicted    -0.2744826E-05 ( -48.81%)
   displ. norm   :     0.0246785 α      lambda        0.6469223E-06
   maximum displ.:     0.0144684 α      in ANC's #2, #8, #14, ...

........................................................................
.............................. CYCLE   45 ..............................
........................................................................
   1    -63.9920607 -0.639921E+02  0.668E-03    2.24       0.0  T
   2    -63.9920607 -0.334146E-07  0.387E-03    2.24       3.8  T
   3    -63.9920607  0.254603E-07  0.107E-03    2.24      13.7  T
   4    -63.9920607 -0.295690E-07  0.365E-04    2.24      39.9  T
   5    -63.9920607 -0.355382E-08  0.152E-04    2.24      95.8  T
     SCC iter.                  ...        0 min,  0.008 sec
     gradient                   ...        0 min,  0.011 sec
 * total energy  :   -63.1263688 Eh     change        0.3875842E-06 Eh
   gradient norm :     0.0014310 Eh/α   predicted     0.3217462E-06 ( -16.99%)
   displ. norm   :     0.0188566 α      lambda       -0.5072272E-05
   maximum displ.:     0.0119181 α      in ANC's #2, #8, #3, ...

........................................................................
.............................. CYCLE   46 ..............................
........................................................................
   1    -63.9919773 -0.639920E+02  0.589E-03    2.24       0.0  T
   2    -63.9919773 -0.168939E-07  0.352E-03    2.24       4.1  T
   3    -63.9919772  0.879790E-07  0.168E-03    2.24       8.7  T
   4    -63.9919773 -0.100388E-06  0.251E-04    2.24      58.1  T
   5    -63.9919773 -0.103189E-08  0.110E-04    2.24     133.0  T
     SCC iter.                  ...        0 min,  0.008 sec
     gradient                   ...        0 min,  0.011 sec
 * total energy  :   -63.1263738 Eh     change       -0.5045027E-05 Eh
   gradient norm :     0.0007150 Eh/α   predicted    -0.2538334E-05 ( -49.69%)
   displ. norm   :     0.0363107 α      lambda       -0.4200449E-05
   maximum displ.:     0.0235221 α      in ANC's #2, #3, #8, ...

........................................................................
.............................. CYCLE   47 ..............................
........................................................................
   1    -63.9918671 -0.639919E+02  0.702E-03    2.24       0.0  T
   2    -63.9918671 -0.293577E-07  0.405E-03    2.24       3.6  T
   3    -63.9918671  0.650549E-07  0.154E-03    2.24       9.5  T
   4    -63.9918671 -0.729876E-07  0.403E-04    2.24      36.2  T
   5    -63.9918671 -0.370909E-08  0.155E-04    2.24      94.4  T
     SCC iter.                  ...        0 min,  0.008 sec
     gradient                   ...        0 min,  0.011 sec
 * total energy  :   -63.1263777 Eh     change       -0.3907417E-05 Eh
   gradient norm :     0.0004984 Eh/α   predicted    -0.2101798E-05 ( -46.21%)
   displ. norm   :     0.0429197 α      lambda       -0.2672978E-05
   maximum displ.:     0.0281166 α      in ANC's #2, #3, #8, ...

   *** GEOMETRY OPTIMIZATION CONVERGED AFTER 47 ITERATIONS ***

------------------------------------------------------------------------
 total energy gain   :        -0.0269127 Eh      -16.8880 kcal/mol
 total RMSD          :         1.2124495 a0        0.6416 Å
 total power (kW/mol):        -1.5033882 (step)  -48.6049 (real)
------------------------------------------------------------------------

 ANCopt (total)                0 d,  0 h,  0 min,  1.454 sec
 optimizer setup                ...        0 min,  0.000 sec (  0.033%)
 model hessian                  ...        0 min,  0.116 sec (  7.950%)
 ANC generation                 ...        0 min,  0.004 sec (  0.297%)
 coordinate transformation      ...        0 min,  0.001 sec (  0.046%)
 single point calculation       ...        0 min,  1.312 sec ( 90.239%)
 optimization log               ...        0 min,  0.011 sec (  0.779%)
 hessian update                 ...        0 min,  0.001 sec (  0.050%)
 rational function              ...        0 min,  0.005 sec (  0.315%)

================
 final structure:
================
47
 xtb: 6.4.0 (d4b70c2)
C         5.03820022490672   -5.98864871086190   -0.05113735657673
C         4.52334331828208   -6.39003323637820    1.34105632357562
C         4.95734450055606   -5.39411061226529    2.42842706197150
H         4.88107863538561   -7.38984693075365    1.59580812340410
H         3.43442923630197   -6.42073957340355    1.31917101176508
C         4.49890252757721   -4.02832739082269    2.03915147166766
H         6.04288232868247   -5.40577611893339    2.52970303548462
H         4.52536120350503   -5.69907796712712    3.38446852548444
C         6.35353426703019   -6.69235462469963   -0.37291938384568
H         7.08993100328839   -6.49240604836001    0.40192943190420
H         6.75555002633039   -6.34520204859909   -1.32201990786883
H         6.20545507208154   -7.76889849772584   -0.43721824548372
C         3.98486868080276   -6.29339393230766   -1.12515192895997
H         5.21146998749118   -4.91040804217299   -0.06370364805474
C         2.71915265878143   -5.49329248398142   -0.98406724863025
H         3.74509313079241   -7.35812937726095   -1.09729268745867
H         4.42254658028926   -6.07872637826025   -2.10439587027632
C         2.63182679201072   -4.17088172279543   -1.02612249147293
C         1.31221720832757   -3.44909518435729   -1.12030721350419
C         3.23083331107000   -3.60104930266290    1.96999246905864
C         3.02428200978074   -2.28669133647093    1.31353379028757
C         2.05861097987687   -4.37776802357278    2.48815780319573
H         1.43448075416038   -3.74750604635288    3.12050248803843
H         2.39624104325942   -5.21906527690295    3.08629050523432
H         1.44828520480099   -4.76000433872693    1.67158067059071
O         3.94803958692505   -1.53995185617490    1.07303015158350
C         1.60499614688957   -1.89966155325131    0.93254267374257
C         1.31361747688250   -2.01456451418525   -0.57016789657009
H         1.50046074011165   -0.84522832109115    1.19753116826122
H         0.85617750858013   -2.48169556670510    1.46218509171762
S        -0.47128281710305   -1.42866664317839   -0.78131913415538
C        -0.27988211219213    0.32899688539786   -0.36414536431004
H         0.75263154297902    0.61191505484407   -0.55045624092835
H        -0.54590559229642    0.49422519330845    0.67671173763719
H        -0.94783554285858    0.88977844651888   -1.01077248904794
O         2.17242423832127   -1.17749003165860   -1.25539620546042
C         1.05457326069952   -3.37763948462008   -2.60398456238852
C         1.41182919825858   -2.31279545438672   -3.30001120764021
C         1.98621460394146   -1.09260149358251   -2.65834029994838
H         5.25792525063493   -3.34411726141830    1.68132191113376
H         1.26376267788463   -2.24409172002076   -4.36675977298839
H         2.97606442297763   -0.86724757092225   -3.06998840544161
H         1.32589026533046   -0.23866877097003   -2.88422048077182
H         0.51640450136851   -4.01859688570128   -0.63109447833784
H         0.62837249277097   -4.25171598627087   -3.07013347804146
H         1.80677564771633   -6.06944965100734   -0.88452144585479
H         3.50624581680612   -3.54891960916918   -1.15420800172040
 
 Bond Distances (Angstroems)
 ---------------------------
C1-C2=1.5377         C1-C9=1.5261         C1-C13=1.5349        C1-H14=1.0921        C2-C1=1.5377         C2-C3=1.5371         
C2-H4=1.0920         C2-H5=1.0896         C3-C2=1.5371         C3-C6=1.4923         C3-H7=1.0903         C3-H8=1.0925         
H4-C2=1.0920         H5-C2=1.0896         C6-C3=1.4923         C6-C20=1.3399        C6-H40=1.0827        H7-C3=1.0903         
H8-C3=1.0925         C9-C1=1.5261         C9-H10=1.0875        C9-H11=1.0876        C9-H12=1.0886        H10-C9=1.0875        
H11-C9=1.0876        H12-C9=1.0886        C13-C1=1.5349        C13-C15=1.5040       C13-H16=1.0918       C13-H17=1.0939       
H14-C1=1.0921        C15-C13=1.5040       C15-C18=1.3260       C15-H46=1.0837       H16-C13=1.0918       H17-C13=1.0939       
C18-C15=1.3260       C18-C19=1.5071       C18-H47=1.0807       C19-C18=1.5071       C19-C28=1.5364       C19-C37=1.5076       
C19-H44=1.0941       C20-C6=1.3399        C20-C21=1.4836       C20-C22=1.4986       C21-C20=1.4836       C21-O26=1.2119       
C21-C27=1.5196       C22-C20=1.4986       C22-H23=1.0893       C22-H24=1.0861       C22-H25=1.0888       H23-C22=1.0893       
H24-C22=1.0861       H25-C22=1.0888       O26-C21=1.2119       C27-C21=1.5196       C27-C28=1.5350       C27-H29=1.0922       
C27-H30=1.0863       C28-C19=1.5364       C28-C27=1.5350       C28-S31=1.8904       C28-O36=1.3812       H29-C27=1.0922       
H30-C27=1.0863       S31-C28=1.8904       S31-C32=1.8166       C32-S31=1.8166       C32-H33=1.0867       C32-H34=1.0869       
C32-H35=1.0857       H33-C32=1.0867       H34-C32=1.0869       H35-C32=1.0857       O36-C28=1.3812       O36-C39=1.4178       
C37-C19=1.5076       C37-C38=1.3214       C37-H45=1.0784       C38-C37=1.3214       C38-C39=1.4935       C38-H41=1.0792       
C39-O36=1.4178       C39-C38=1.4935       C39-H42=1.0955       C39-H43=1.1028       H40-C6=1.0827        H41-C38=1.0792       
H42-C39=1.0955       H43-C39=1.1028       H44-C19=1.0941       H45-C37=1.0784       H46-C15=1.0837       H47-C18=1.0807       
 C  H  Rav=1.0886 sigma=0.0053  Rmin=1.0784  Rmax=1.1028    26
 C  C  Rav=1.4824 sigma=0.0730  Rmin=1.3214  Rmax=1.5377    17
 O  C  Rav=1.3370 sigma=0.0897  Rmin=1.2119  Rmax=1.4178     3
 S  C  Rav=1.8535 sigma=0.0369  Rmin=1.8166  Rmax=1.8904     2
 
 selected bond angles (degree)
 --------------------
C9-C1-C2=111.05                C13-C1-C2=110.61               C13-C1-C9=110.63               H14-C1-C2=108.74               
H14-C1-C9=108.43               H14-C1-C13=107.27              C3-C2-C1=112.14                H4-C2-C1=109.91                
H4-C2-C3=109.61                H5-C2-C1=108.89                H5-C2-C3=108.34                H5-C2-H4=107.84                
C6-C3-C2=108.77                H7-C3-C2=109.87                H7-C3-C6=109.87                H8-C3-C2=109.06                
H8-C3-C6=111.24                H8-C3-H7=108.02                C20-C6-C3=126.59               H40-C6-C3=116.69               
H40-C6-C20=116.42              H10-C9-C1=110.40               H11-C9-C1=110.82               H11-C9-H10=108.23              
H12-C9-C1=110.56               H12-C9-H10=108.42              H12-C9-H11=108.32              
 
 selected dihedral angles (degree)
 ---------------------------------
C3-C2-C1-C9= 94.59            C3-C2-C1-C13=217.83           C3-C2-C1-H14=335.37           H4-C2-C1-C9=332.40            
H4-C2-C1-C13= 95.64           H4-C2-C1-H14=213.18           H5-C2-C1-C9=214.48            H5-C2-C1-C13=337.72           
H5-C2-C1-H14= 95.26           C6-C3-C2-C1= 55.76            C6-C3-C2-H4=178.12            C6-C3-C2-H5=295.55            
H7-C3-C2-C1=295.47            H7-C3-C2-H4= 57.83            H7-C3-C2-H5=175.26            H8-C3-C2-C1=177.24            
H8-C3-C2-H4=299.60            H8-C3-C2-H5= 57.03            C20-C6-C3-C2= 67.67           C20-C6-C3-H7=187.97           
C20-C6-C3-H8=307.53           H40-C6-C3-C2=254.29           H40-C6-C3-H7= 14.59           H40-C6-C3-H8=134.15           
H10-C9-C1-C2=304.51           H10-C9-C1-C13=181.29          H10-C9-C1-H14= 63.92          H11-C9-C1-C2=184.61           
H11-C9-C1-C13= 61.39          H11-C9-C1-H14=304.02          H12-C9-C1-C2= 64.49           H12-C9-C1-C13=301.27          
H12-C9-C1-H14=183.90          
           -------------------------------------------------
          |                Final Singlepoint                |
           -------------------------------------------------

          ...................................................
          :                      SETUP                      :
          :.................................................:
          :  # basis functions                 116          :
          :  # atomic orbitals                 115          :
          :  # shells                           69          :
          :  # electrons                       116          :
          :  max. iterations                   100          :
          :  Hamiltonian                  GFN2-xTB          :
          :  restarted?                      false          :
          :  GBSA solvation                  false          :
          :  PC potential                    false          :
          :  electronic temp.          300.0000000     K    :
          :  accuracy                    1.0000000          :
          :  -> integral cutoff          0.2500000E+02      :
          :  -> integral neglect         0.1000000E-07      :
          :  -> SCF convergence          0.1000000E-05 Eh   :
          :  -> wf. convergence          0.1000000E-03 e    :
          :  Broyden damping             0.4000000          :
          ...................................................

 iter      E             dE          RMSdq      gap      omega  full diag
   1    -63.9918671 -0.639919E+02  0.608E-05    2.24       0.0  T
   2    -63.9918671 -0.155822E-10  0.483E-05    2.24     302.0  T
   3    -63.9918671 -0.770299E-10  0.204E-05    2.24     715.1  T

   *** convergence criteria satisfied after 3 iterations ***

         #    Occupation            Energy/Eh            Energy/eV
      -------------------------------------------------------------
         1        2.0000           -0.7131573             -19.4060
       ...           ...                  ...                  ...
        52        2.0000           -0.4181304             -11.3779
        53        2.0000           -0.4064230             -11.0593
        54        2.0000           -0.4042894             -11.0013
        55        2.0000           -0.4003458             -10.8940
        56        2.0000           -0.3882096             -10.5637
        57        2.0000           -0.3826149             -10.4115
        58        2.0000           -0.3547397              -9.6530 (HOMO)
        59                         -0.2723465              -7.4109 (LUMO)
        60                         -0.2235110              -6.0820
        61                         -0.2022667              -5.5040
        62                         -0.1908651              -5.1937
        63                         -0.1707673              -4.6468
       ...                                ...                  ...
       115                          0.6706274              18.2487
      -------------------------------------------------------------
                  HL-Gap            0.0823932 Eh            2.2420 eV
             Fermi-level           -0.3135431 Eh           -8.5319 eV

 SCC (total)                   0 d,  0 h,  0 min,  0.023 sec
 SCC setup                      ...        0 min,  0.000 sec (  1.492%)
 Dispersion                     ...        0 min,  0.000 sec (  1.000%)
 classical contributions        ...        0 min,  0.000 sec (  0.178%)
 integral evaluation            ...        0 min,  0.006 sec ( 27.464%)
 iterations                     ...        0 min,  0.005 sec ( 21.690%)
 molecular gradient             ...        0 min,  0.011 sec ( 46.701%)
 printout                       ...        0 min,  0.000 sec (  1.383%)

         :::::::::::::::::::::::::::::::::::::::::::::::::::::
         ::                     SUMMARY                     ::
         :::::::::::::::::::::::::::::::::::::::::::::::::::::
         :: total energy             -63.126377726019 Eh    ::
         :: gradient norm              0.000497895246 Eh/a0 ::
         :: HOMO-LUMO gap              2.242032609278 eV    ::
         ::.................................................::
         :: SCC energy               -63.991867147515 Eh    ::
         :: -> isotropic ES            0.053199922654 Eh    ::
         :: -> anisotropic ES          0.006327400005 Eh    ::
         :: -> anisotropic XC          0.030471322493 Eh    ::
         :: -> dispersion             -0.054432413095 Eh    ::
         :: repulsion energy           0.864180542790 Eh    ::
         :: add. restraining           0.000000000000 Eh    ::
         :: total charge              -0.000000000000 e     ::
         :::::::::::::::::::::::::::::::::::::::::::::::::::::

           -------------------------------------------------
          |                Property Printout                |
           -------------------------------------------------

    * Orbital Energies and Occupations

         #    Occupation            Energy/Eh            Energy/eV
      -------------------------------------------------------------
         1        2.0000           -0.7131573             -19.4060
       ...           ...                  ...                  ...
        46        2.0000           -0.4515105             -12.2862
        47        2.0000           -0.4454719             -12.1219
        48        2.0000           -0.4410590             -12.0018
        49        2.0000           -0.4354924             -11.8504
        50        2.0000           -0.4299407             -11.6993
        51        2.0000           -0.4231568             -11.5147
        52        2.0000           -0.4181304             -11.3779
        53        2.0000           -0.4064230             -11.0593
        54        2.0000           -0.4042894             -11.0013
        55        2.0000           -0.4003458             -10.8940
        56        2.0000           -0.3882096             -10.5637
        57        2.0000           -0.3826149             -10.4115
        58        2.0000           -0.3547397              -9.6530 (HOMO)
        59                         -0.2723465              -7.4109 (LUMO)
        60                         -0.2235110              -6.0820
        61                         -0.2022667              -5.5040
        62                         -0.1908651              -5.1937
        63                         -0.1707673              -4.6468
        64                         -0.1464876              -3.9861
        65                         -0.0055952              -0.1523
        66                         -0.0025599              -0.0697
        67                          0.0130497               0.3551
        68                          0.0249869               0.6799
        69                          0.0561997               1.5293
       ...                                ...                  ...
       115                          0.6706274              18.2487
      -------------------------------------------------------------
                  HL-Gap            0.0823932 Eh            2.2420 eV
             Fermi-level           -0.3135431 Eh           -8.5319 eV

     #   Z          covCN         q      C6AA      α(0)
     1   6 C        3.851    -0.017    20.848     6.494
     2   6 C        3.809    -0.063    21.708     6.632
     3   6 C        3.804    -0.057    21.588     6.615
     4   1 H        0.924     0.037     2.483     2.464
     5   1 H        0.925     0.043     2.406     2.426
     6   6 C        2.912    -0.018    28.465     8.749
     7   1 H        0.924     0.041     2.432     2.439
     8   1 H        0.924     0.043     2.409     2.427
     9   6 C        3.755    -0.106    22.577     6.775
    10   1 H        0.925     0.038     2.472     2.459
    11   1 H        0.925     0.035     2.521     2.483
    12   1 H        0.925     0.034     2.534     2.489
    13   6 C        3.808    -0.063    21.708     6.632
    14   1 H        0.924     0.041     2.432     2.439
    15   6 C        2.889    -0.042    29.037     8.835
    16   1 H        0.924     0.036     2.501     2.473
    17   1 H        0.924     0.043     2.410     2.428
    18   6 C        2.912    -0.042    29.032     8.835
    19   6 C        3.918    -0.020    20.872     6.493
    20   6 C        2.940    -0.023    28.567     8.766
    21   6 C        2.829     0.228    23.211     7.895
    22   6 C        3.756    -0.109    22.635     6.784
    23   1 H        0.925     0.045     2.383     2.414
    24   1 H        0.925     0.052     2.292     2.368
    25   1 H        0.925     0.049     2.331     2.387
    26   8 O        0.858    -0.368    21.060     6.153
    27   6 C        3.848    -0.089    22.157     6.695
    28   6 C        3.791     0.199    17.474     5.953
    29   1 H        0.924     0.073     2.057     2.243
    30   1 H        0.925     0.057     2.237     2.339
    31  16 S        2.036    -0.269   152.627    20.793
    32   6 C        3.744    -0.042    21.399     6.599
    33   1 H        0.925     0.063     2.162     2.299
    34   1 H        0.925     0.046     2.374     2.410
    35   1 H        0.925     0.054     2.272     2.357
    36   8 O        1.710    -0.293    18.865     5.864
    37   6 C        2.922    -0.029    28.718     8.788
    38   6 C        2.891    -0.049    29.227     8.864
    39   6 C        3.702     0.091    19.228     6.270
    40   1 H        0.925     0.063     2.166     2.302
    41   1 H        0.926     0.039     2.456     2.451
    42   1 H        0.924     0.056     2.242     2.342
    43   1 H        0.923     0.043     2.415     2.430
    44   1 H        0.924     0.041     2.438     2.442
    45   1 H        0.926     0.039     2.467     2.456
    46   1 H        0.925     0.027     2.626     2.534
    47   1 H        0.926     0.042     2.423     2.434

 Mol. C6AA /au·bohr⁶  :      22084.342965
 Mol. C8AA /au·bohr⁸  :     540445.236412
 Mol. α(0) /au        :        228.218086


Wiberg/Mayer (AO) data.
largest (>0.10) Wiberg bond orders for each atom

 ---------------------------------------------------------------------------
     #   Z sym  total        # sym  WBO       # sym  WBO       # sym  WBO
 ---------------------------------------------------------------------------
     1   6 C    3.993 --     9 C    1.010     2 C    0.993    13 C    0.983
                            14 H    0.961
     2   6 C    3.994 --     1 C    0.993     3 C    0.981     4 H    0.976
                             5 H    0.973
     3   6 C    3.997 --     6 C    1.034     2 C    0.981     7 H    0.978
                             8 H    0.960
     4   1 H    0.998 --     2 C    0.976
     5   1 H    0.998 --     2 C    0.973
     6   6 C    3.982 --    20 C    1.788     3 C    1.034    40 H    0.960
     7   1 H    0.998 --     3 C    0.978
     8   1 H    0.998 --     3 C    0.960
     9   6 C    3.996 --     1 C    1.010    11 H    0.986    12 H    0.986
                            10 H    0.985
    10   1 H    0.998 --     9 C    0.985
    11   1 H    0.999 --     9 C    0.986
    12   1 H    0.999 --     9 C    0.986
    13   6 C    3.996 --    15 C    1.019     1 C    0.983    16 H    0.979
                            17 H    0.961
    14   1 H    0.998 --     1 C    0.961
    15   6 C    3.989 --    18 C    1.910    13 C    1.019    46 H    0.966
    16   1 H    0.998 --    13 C    0.979
    17   1 H    0.997 --    13 C    0.961
    18   6 C    3.983 --    15 C    1.910    19 C    0.985    47 H    0.962
    19   6 C    3.995 --    18 C    0.985    37 C    0.984    28 C    0.962
                            44 H    0.957
    20   6 C    3.985 --     6 C    1.788    21 C    1.035    22 C    1.026
    21   6 C    3.927 --    26 O    1.811    20 C    1.035    27 C    0.972
    22   6 C    3.996 --    20 C    1.026    24 H    0.978    23 H    0.972
                            25 H    0.966
    23   1 H    0.998 --    22 C    0.972
    24   1 H    0.997 --    22 C    0.978
    25   1 H    0.998 --    22 C    0.966
    26   8 O    2.066 --    21 C    1.811
    27   6 C    3.992 --    21 C    0.972    30 H    0.969    28 C    0.966
                            29 H    0.955
    28   6 C    3.937 --    36 O    1.029    27 C    0.966    19 C    0.962
                            31 S    0.882
    29   1 H    0.994 --    27 C    0.955
    30   1 H    0.997 --    27 C    0.969
    31  16 S    2.067 --    32 C    1.015    28 C    0.882
    32   6 C    3.977 --    31 S    1.015    34 H    0.986    35 H    0.982
                            33 H    0.976
    33   1 H    0.996 --    32 C    0.976
    34   1 H    0.998 --    32 C    0.986
    35   1 H    0.997 --    32 C    0.982
    36   8 O    2.163 --    28 C    1.029    39 C    0.966
    37   6 C    3.988 --    38 C    1.913    19 C    0.984    45 H    0.967
    38   6 C    3.989 --    37 C    1.913    39 C    1.022    41 H    0.964
    39   6 C    3.949 --    38 C    1.022    36 O    0.966    42 H    0.954
                            43 H    0.950
    40   1 H    0.996 --     6 C    0.960
    41   1 H    0.998 --    38 C    0.964
    42   1 H    0.997 --    39 C    0.954
    43   1 H    0.997 --    39 C    0.950
    44   1 H    0.998 --    19 C    0.957
    45   1 H    0.998 --    37 C    0.967
    46   1 H    0.999 --    15 C    0.966
    47   1 H    0.998 --    18 C    0.962
 ---------------------------------------------------------------------------

Topologies differ in total number of bonds
Writing topology from bond orders to xtbtopo.mol

molecular dipole:
                 x           y           z       tot (Debye)
 q only:       -0.005      -1.112       0.089
   full:        0.035      -0.952       0.057       2.426
molecular quadrupole (traceless):
                xx          xy          yy          xz          yz          zz
 q only:      -15.152     -15.897      16.221      -1.874      -6.452      -1.070
  q+dip:      -17.570     -15.775      18.564      -4.392      -8.237      -0.994
   full:      -18.120     -16.633      17.421      -4.022      -6.636       0.700

           -------------------------------------------------
          |                Geometry Summary                 |
           -------------------------------------------------

      molecular mass/u    :      306.4633029
   center of mass at/Å    :        2.5371880      -3.3177271      -0.1581725
  moments of inertia/u·Å² :        0.9778169E+03   0.2516048E+04   0.2938675E+04
rotational constants/cm⁻¹ :        0.1724007E-01   0.6700045E-02   0.5736474E-02

 * 38 selected distances

     #   Z          #   Z                                           value/Å
     1   6 C        2   6 C                                       1.5376574 (max)
     2   6 C        3   6 C                                       1.5370732
     2   6 C        4   1 H                                       1.0920167
     2   6 C        5   1 H                                       1.0895668
     3   6 C        7   1 H                                       1.0903143
     3   6 C        8   1 H                                       1.0925337
     1   6 C        9   6 C                                       1.5260568
     9   6 C       10   1 H                                       1.0874973
     9   6 C       11   1 H                                       1.0876228
     9   6 C       12   1 H                                       1.0885810
     1   6 C       13   6 C                                       1.5348890
     1   6 C       14   1 H                                       1.0921462
    13   6 C       16   1 H                                       1.0917555
    13   6 C       17   1 H                                       1.0938751
    15   6 C       18   6 C                                       1.3259580
     6   6 C       20   6 C                                       1.3399064
    22   6 C       23   1 H                                       1.0893248
    22   6 C       24   1 H                                       1.0860653
    22   6 C       25   1 H                                       1.0887609
    21   6 C       26   8 O                                       1.2119364
    19   6 C       28   6 C                                       1.5364028
    27   6 C       28   6 C                                       1.5350060
    27   6 C       29   1 H                                       1.0922344
    27   6 C       30   1 H                                       1.0862845
    32   6 C       33   1 H                                       1.0866641
    32   6 C       34   1 H                                       1.0869464
    32   6 C       35   1 H                                       1.0857092
    28   6 C       36   8 O                                       1.3812243
    37   6 C       38   6 C                                       1.3213545
    36   8 O       39   6 C                                       1.4177913
     6   6 C       40   1 H                                       1.0827285
    38   6 C       41   1 H                                       1.0791647
    39   6 C       42   1 H                                       1.0954639
    39   6 C       43   1 H                                       1.1028378
    19   6 C       44   1 H                                       1.0940654
    37   6 C       45   1 H                                       1.0784024 (min)
    15   6 C       46   1 H                                       1.0836504
    18   6 C       47   1 H                                       1.0806717

 * 3 distinct bonds (by element types)

   Z      Z             #   av. dist./Å        max./Å        min./Å
   1 H    6 C          26     1.0886494     1.1028378     1.0784024
   6 C    6 C           9     1.4660338     1.5376574     1.3213545
   6 C    8 O           3     1.3369840     1.4177913     1.2119364


optimized geometry written to: xtbopt.xyz


           -------------------------------------------------
          | TOTAL ENERGY              -63.126377726019 Eh   |
          | GRADIENT NORM               0.000497895246 Eh/α |
          | HOMO-LUMO GAP               2.242032609278 eV   |
           -------------------------------------------------

------------------------------------------------------------------------
 * finished run on 2021/06/02 at 09:35:11.899     
------------------------------------------------------------------------
 total:
 * wall-time:     0 d,  0 h,  0 min,  1.562 sec
 *  cpu-time:     0 d,  0 h,  0 min,  6.178 sec
 * ratio c/w:     3.956 speedup
 SCF:
 * wall-time:     0 d,  0 h,  0 min,  0.040 sec
 *  cpu-time:     0 d,  0 h,  0 min,  0.157 sec
 * ratio c/w:     3.935 speedup
 ANC optimizer:
 * wall-time:     0 d,  0 h,  0 min,  1.481 sec
 *  cpu-time:     0 d,  0 h,  0 min,  5.903 sec
 * ratio c/w:     3.987 speedup

