      -----------------------------------------------------------      
     |                   =====================                   |     
     |                           x T B                           |     
     |                   =====================                   |     
     |                         S. Grimme                         |     
     |          Mulliken Center for Theoretical Chemistry        |     
     |                    University of Bonn                     |     
      -----------------------------------------------------------      

   * xtb version 6.4.0 (d4b70c2) compiled by 'ehlert@majestix' on 2021-02-01

   xtb is free software: you can redistribute it and/or modify it under
   the terms of the GNU Lesser General Public License as published by
   the Free Software Foundation, either version 3 of the License, or
   (at your option) any later version.
   
   xtb is distributed in the hope that it will be useful,
   but WITHOUT ANY WARRANTY; without even the implied warranty of
   MERCHANTABILITY or FITNESS FOR A PARTICULAR PURPOSE.  See the
   GNU Lesser General Public License for more details.
   
   Cite this work as:
   * C. Bannwarth, E. Caldeweyher, S. Ehlert, A. Hansen, P. Pracht,
     J. Seibert, S. Spicher, S. Grimme, WIREs Comput. Mol. Sci., 2020,
     e01493. DOI: 10.1002/wcms.1493
   
   for GFN2-xTB:
   * C. Bannwarth, S. Ehlert and S. Grimme., J. Chem. Theory Comput., 2019,
     15, 1652-1671. DOI: 10.1021/acs.jctc.8b01176
   for GFN1-xTB:
   * S. Grimme, C. Bannwarth, P. Shushkov, J. Chem. Theory Comput., 2017,
     13, 1989-2009. DOI: 10.1021/acs.jctc.7b00118
   for GFN0-xTB:
   * P. Pracht, E. Caldeweyher, S. Ehlert, S. Grimme, ChemRxiv, 2019, preprint.
     DOI: 10.26434/chemrxiv.8326202.v1
   for GFN-FF:
   * S. Spicher and S. Grimme, Angew. Chem. Int. Ed., 2020, 59, 15665-15673.
     DOI: 10.1002/anie.202004239
   
   for DFT-D4:
   * E. Caldeweyher, C. Bannwarth and S. Grimme, J. Chem. Phys., 2017,
     147, 034112. DOI: 10.1063/1.4993215
   * E. Caldeweyher, S. Ehlert, A. Hansen, H. Neugebauer, S. Spicher,
     C. Bannwarth and S. Grimme, J. Chem. Phys., 2019, 150, 154122.
     DOI: 10.1063/1.5090222
   * E. Caldeweyher, J.-M. Mewes, S. Ehlert and S. Grimme, Phys. Chem. Chem. Phys.
     2020, 22, 8499-8512. DOI: 10.1039/D0CP00502A
   
   for sTDA-xTB:
   * S. Grimme and C. Bannwarth, J. Chem. Phys., 2016, 145, 054103.
     DOI: 10.1063/1.4959605
   
   in the mass-spec context:
   * V. Asgeirsson, C. Bauer and S. Grimme, Chem. Sci., 2017, 8, 4879.
     DOI: 10.1039/c7sc00601b
   * J. Koopman and S. Grimme, ACS Omega 2019, 4, 12, 15120-15133.
     DOI: 10.1021/acsomega.9b02011
   
   for metadynamics refer to:
   * S. Grimme, J. Chem. Theory Comput., 2019, 155, 2847-2862
     DOI: 10.1021/acs.jctc.9b00143
   
   with help from (in alphabetical order)
   P. Atkinson, C. Bannwarth, F. Bohle, G. Brandenburg, E. Caldeweyher
   M. Checinski, S. Dohm, S. Ehlert, S. Ehrlich, I. Gerasimov, J. Koopman
   C. Lavinge, S. Lehtola, F. März, M. Müller, F. Musil, H. Neugebauer
   J. Pisarek, P. Pracht, J. Seibert, P. Shushkov, S. Spicher, M. Stahn
   T. Strunk, J. Stückrath, T. Rose, and J. Unsleber
   
 * started run on 2021/06/02 at 09:35:14.507     

           -------------------------------------------------
          |                Calculation Setup                |
           -------------------------------------------------

          program call               : xtb -c 0 -u 0 -a 1.0 --iterations 100 --opt normal --namespace XJMYWACPKIORJK-SMLDIACYSA-N /home/zhao922/bin/Github/YARP/version2.0/CONF_GEN/SAAA//opt-folder/XJMYWACPKIORJK-SMLDIACYSA-N.xyz
          hostname                   : bell-a001
          calculation namespace      : XJMYWACPKIORJK-SMLDIACYSA-N
          coordinate file            : /home/zhao922/bin/Github/YARP/version2.0/CONF_GEN/SAAA//opt-folder/XJMYWACPKIORJK-SMLDIACYSA-N.xyz
          omp threads                :                     4
          number of atoms            :                    47
          number of electrons        :                   116
          charge                     :                     0
          spin                       :                   0.0
          first test random number   :      0.89724471478993

   ID    Z sym.   atoms
    1    6 C      1-3, 6, 9, 13, 15, 18-22, 27, 28, 32, 37-39
    2    1 H      4, 5, 7, 8, 10-12, 14, 16, 17, 23-25, 29, 30, 33-35, 40-47
    3    8 O      26, 36
    4   16 S      31

           -------------------------------------------------
          |                 G F N 2 - x T B                 |
           -------------------------------------------------

        Reference                      10.1021/acs.jctc.8b01176
      * Hamiltonian:
        H0-scaling (s, p, d)           1.850000    2.230000    2.230000
        zeta-weighting                 0.500000
      * Dispersion:
        s8                             2.700000
        a1                             0.520000
        a2                             5.000000
        s9                             5.000000
      * Repulsion:
        kExp                           1.500000    1.000000
        rExp                           1.000000
      * Coulomb:
        alpha                          2.000000
        third order                    shell-resolved
        anisotropic                    true
        a3                             3.000000
        a5                             4.000000
        cn-shift                       1.200000
        cn-exp                         4.000000
        max-rad                        5.000000


          ...................................................
          :                      SETUP                      :
          :.................................................:
          :  # basis functions                 116          :
          :  # atomic orbitals                 115          :
          :  # shells                           69          :
          :  # electrons                       116          :
          :  max. iterations                   100          :
          :  Hamiltonian                  GFN2-xTB          :
          :  restarted?                      false          :
          :  GBSA solvation                  false          :
          :  PC potential                    false          :
          :  electronic temp.          300.0000000     K    :
          :  accuracy                    1.0000000          :
          :  -> integral cutoff          0.2500000E+02      :
          :  -> integral neglect         0.1000000E-07      :
          :  -> SCF convergence          0.1000000E-05 Eh   :
          :  -> wf. convergence          0.1000000E-03 e    :
          :  Broyden damping             0.4000000          :
          ...................................................

 iter      E             dE          RMSdq      gap      omega  full diag
   1    -63.7377286 -0.637377E+02  0.391E+00    3.69       0.0  T
   2    -63.8477185 -0.109990E+00  0.214E+00    2.70       1.0  T
   3    -63.8468115  0.906999E-03  0.116E+00    3.15       1.0  T
   4    -63.8636735 -0.168621E-01  0.315E-01    2.55       1.0  T
   5    -63.8647818 -0.110829E-02  0.135E-01    2.63       1.0  T
   6    -63.8648755 -0.936699E-04  0.761E-02    2.63       1.0  T
   7    -63.8649963 -0.120805E-03  0.333E-02    2.62       1.0  T
   8    -63.8650164 -0.201417E-04  0.137E-02    2.63       1.1  T
   9    -63.8650160  0.407284E-06  0.929E-03    2.63       1.6  T
  10    -63.8650183 -0.224158E-05  0.269E-03    2.63       5.4  T
  11    -63.8650183 -0.593024E-07  0.154E-03    2.63       9.5  T
  12    -63.8650183 -0.172458E-08  0.716E-04    2.63      20.4  T
  13    -63.8650184 -0.123097E-07  0.279E-04    2.63      52.3  T

   *** convergence criteria satisfied after 13 iterations ***

         #    Occupation            Energy/Eh            Energy/eV
      -------------------------------------------------------------
         1        2.0000           -0.7259766             -19.7548
       ...           ...                  ...                  ...
        52        2.0000           -0.4140398             -11.2666
        53        2.0000           -0.4053908             -11.0312
        54        2.0000           -0.3994147             -10.8686
        55        2.0000           -0.3885121             -10.5720
        56        2.0000           -0.3800844             -10.3426
        57        2.0000           -0.3764810             -10.2446
        58        2.0000           -0.3706434             -10.0857 (HOMO)
        59                         -0.2741216              -7.4592 (LUMO)
        60                         -0.2181252              -5.9355
        61                         -0.2100417              -5.7155
        62                         -0.2007600              -5.4630
        63                         -0.1958455              -5.3292
       ...                                ...                  ...
       115                          0.5992337              16.3060
      -------------------------------------------------------------
                  HL-Gap            0.0965219 Eh            2.6265 eV
             Fermi-level           -0.3223825 Eh           -8.7725 eV

 SCC (total)                   0 d,  0 h,  0 min,  0.042 sec
 SCC setup                      ...        0 min,  0.000 sec (  0.681%)
 Dispersion                     ...        0 min,  0.000 sec (  1.109%)
 classical contributions        ...        0 min,  0.000 sec (  0.262%)
 integral evaluation            ...        0 min,  0.007 sec ( 16.879%)
 iterations                     ...        0 min,  0.023 sec ( 56.118%)
 molecular gradient             ...        0 min,  0.010 sec ( 24.037%)
 printout                       ...        0 min,  0.000 sec (  0.842%)

         :::::::::::::::::::::::::::::::::::::::::::::::::::::
         ::                     SUMMARY                     ::
         :::::::::::::::::::::::::::::::::::::::::::::::::::::
         :: total energy             -63.093362613288 Eh    ::
         :: gradient norm              0.106829914340 Eh/a0 ::
         :: HOMO-LUMO gap              2.626494077624 eV    ::
         ::.................................................::
         :: SCC energy               -63.865018350992 Eh    ::
         :: -> isotropic ES            0.050195040111 Eh    ::
         :: -> anisotropic ES          0.012283912278 Eh    ::
         :: -> anisotropic XC          0.031851375846 Eh    ::
         :: -> dispersion             -0.052654265560 Eh    ::
         :: repulsion energy           0.770733199132 Eh    ::
         :: add. restraining           0.000000000000 Eh    ::
         :: total charge              -0.000000000000 e     ::
         :::::::::::::::::::::::::::::::::::::::::::::::::::::

      ----------------------------------------------------------- 
     |                   =====================                   |
     |                        A N C O P T                        |
     |                   =====================                   |
     |               Approximate Normal Coordinate               |
     |                Rational Function Optimizer                |
      ----------------------------------------------------------- 

          ...................................................
          :                      SETUP                      :
          :.................................................:
          :   optimization level            normal          :
          :   max. optcycles                   200          :
          :   ANC micro-cycles                  20          :
          :   degrees of freedom               135          :
          :.................................................:
          :   RF solver                   davidson          :
          :   write xtbopt.log                true          :
          :   linear?                        false          :
          :   energy convergence         0.5000000E-05 Eh   :
          :   grad. convergence          0.1000000E-02 Eh/α :
          :   maximium RF displ.         1.0000000          :
          :   Hlow (freq-cutoff)         0.1000000E-01      :
          :   Hmax (freq-cutoff)         5.0000000          :
          :   S6 in model hess.         20.0000000          :
          ...................................................

generating ANC from model Hessian ...
Using Lindh-Hessian (1995)
 Shifting diagonal of input Hessian by   9.678116094883614E-003
 Lowest  eigenvalues of input Hessian
    0.000000    0.000000    0.000000    0.000000    0.000000    0.000000
    0.010000    0.010040    0.010698    0.010984    0.011506    0.011723
    0.012711    0.013247    0.013475    0.014061    0.014603    0.014753
 Highest eigenvalues
    1.455339    1.571595    1.754383    1.823317    1.868633    2.045504
 

........................................................................
.............................. CYCLE    1 ..............................
........................................................................
   1    -63.8650184 -0.638650E+02  0.101E-04    2.63       0.0  T
   2    -63.8650184 -0.670042E-10  0.648E-05    2.63     225.1  T
   3    -63.8650184 -0.793250E-10  0.415E-05    2.63     351.4  T
     SCC iter.                  ...        0 min,  0.005 sec
     gradient                   ...        0 min,  0.010 sec
 * total energy  :   -63.0933626 Eh     change       -0.1685599E-08 Eh
   gradient norm :     0.1068332 Eh/α   predicted     0.0000000E+00 (-100.00%)
   displ. norm   :     0.4269460 α      lambda       -0.2718142E-01
   maximum displ.:     0.1288747 α      in ANC's #54, #87, #29, ...

........................................................................
.............................. CYCLE    2 ..............................
........................................................................
   1    -63.9461197 -0.639461E+02  0.316E-01    2.83       0.0  T
   2    -63.9462656 -0.145950E-03  0.177E-01    2.80       1.0  T
   3    -63.9461091  0.156524E-03  0.795E-02    2.83       1.0  T
   4    -63.9462913 -0.182220E-03  0.264E-02    2.81       1.0  T
   5    -63.9463085 -0.171933E-04  0.912E-03    2.81       1.6  T
   6    -63.9463088 -0.347995E-06  0.458E-03    2.82       3.2  T
   7    -63.9463094 -0.543255E-06  0.166E-03    2.81       8.8  T
   8    -63.9463094 -0.495149E-07  0.882E-04    2.81      16.5  T
   9    -63.9463094 -0.675755E-08  0.357E-04    2.81      40.8  T
     SCC iter.                  ...        0 min,  0.014 sec
     gradient                   ...        0 min,  0.010 sec
 * total energy  :   -63.1112458 Eh     change       -0.1788320E-01 Eh
   gradient norm :     0.0380442 Eh/α   predicted    -0.1607206E-01 ( -10.13%)
   displ. norm   :     0.4521721 α      lambda       -0.8473221E-02
   maximum displ.:     0.1675357 α      in ANC's #29, #8, #23, ...

........................................................................
.............................. CYCLE    3 ..............................
........................................................................
   1    -63.9885132 -0.639885E+02  0.231E-01    2.98       0.0  T
   2    -63.9886216 -0.108439E-03  0.128E-01    2.94       1.0  T
   3    -63.9885787  0.429937E-04  0.518E-02    2.96       1.0  T
   4    -63.9886255 -0.468263E-04  0.236E-02    2.95       1.0  T
   5    -63.9886416 -0.161179E-04  0.737E-03    2.95       2.0  T
   6    -63.9886420 -0.392718E-06  0.268E-03    2.95       5.4  T
   7    -63.9886421 -0.156505E-06  0.105E-03    2.95      13.8  T
   8    -63.9886422 -0.468891E-08  0.646E-04    2.95      22.6  T
   9    -63.9886422 -0.479685E-08  0.266E-04    2.95      54.8  T
     SCC iter.                  ...        0 min,  0.014 sec
     gradient                   ...        0 min,  0.010 sec
 * total energy  :   -63.1163296 Eh     change       -0.5083801E-02 Eh
   gradient norm :     0.0166188 Eh/α   predicted    -0.5102833E-02 (   0.37%)
   displ. norm   :     0.4418020 α      lambda       -0.3436620E-02
   maximum displ.:     0.1739113 α      in ANC's #8, #5, #29, ...

........................................................................
.............................. CYCLE    4 ..............................
........................................................................
   1    -63.9909515 -0.639910E+02  0.200E-01    2.94       0.0  T
   2    -63.9909869 -0.354086E-04  0.110E-01    2.98       1.0  T
   3    -63.9909598  0.270336E-04  0.361E-02    2.96       1.0  T
   4    -63.9909933 -0.334584E-04  0.145E-02    2.98       1.0  T
   5    -63.9909961 -0.283887E-05  0.594E-03    2.98       2.5  T
   6    -63.9909966 -0.503733E-06  0.181E-03    2.97       8.0  T
   7    -63.9909967 -0.828716E-07  0.751E-04    2.97      19.4  T
   8    -63.9909967 -0.118015E-08  0.435E-04    2.97      33.5  T
     SCC iter.                  ...        0 min,  0.013 sec
     gradient                   ...        0 min,  0.011 sec
 * total energy  :   -63.1187056 Eh     change       -0.2376018E-02 Eh
   gradient norm :     0.0162397 Eh/α   predicted    -0.2053707E-02 ( -13.57%)
   displ. norm   :     0.5287627 α      lambda       -0.2610181E-02
   maximum displ.:     0.2317244 α      in ANC's #5, #8, #2, ...

........................................................................
.............................. CYCLE    5 ..............................
........................................................................
   1    -63.9869300 -0.639869E+02  0.197E-01    3.04       0.0  T
   2    -63.9869452 -0.152193E-04  0.109E-01    3.04       1.0  T
   3    -63.9869132  0.320260E-04  0.344E-02    3.03       1.0  T
   4    -63.9869504 -0.372172E-04  0.126E-02    3.03       1.2  T
   5    -63.9869522 -0.183154E-05  0.307E-03    3.03       4.8  T
   6    -63.9869525 -0.238372E-06  0.134E-03    3.03      10.9  T
   7    -63.9869525 -0.497555E-07  0.596E-04    3.03      24.5  T
   8    -63.9869525 -0.202230E-08  0.223E-04    3.03      65.4  T
     SCC iter.                  ...        0 min,  0.013 sec
     gradient                   ...        0 min,  0.010 sec
 * total energy  :   -63.1207395 Eh     change       -0.2033906E-02 Eh
   gradient norm :     0.0167622 Eh/α   predicted    -0.1669984E-02 ( -17.89%)
   displ. norm   :     0.5871930 α      lambda       -0.2392513E-02
   maximum displ.:     0.2773824 α      in ANC's #5, #2, #8, ...

........................................................................
.............................. CYCLE    6 ..............................
........................................................................
   1    -63.9828534 -0.639829E+02  0.198E-01    3.07       0.0  T
   2    -63.9828867 -0.332969E-04  0.110E-01    3.09       1.0  T
   3    -63.9828312  0.555138E-04  0.458E-02    3.07       1.0  T
   4    -63.9828931 -0.618776E-04  0.157E-02    3.08       1.0  T
   5    -63.9828989 -0.582127E-05  0.512E-03    3.08       2.8  T
   6    -63.9828990 -0.100846E-06  0.247E-03    3.08       5.9  T
   7    -63.9828992 -0.236921E-06  0.614E-04    3.08      23.7  T
   8    -63.9828992 -0.338438E-08  0.368E-04    3.08      39.6  T
     SCC iter.                  ...        0 min,  0.013 sec
     gradient                   ...        0 min,  0.010 sec
 * total energy  :   -63.1226419 Eh     change       -0.1902391E-02 Eh
   gradient norm :     0.0158812 Eh/α   predicted    -0.1608722E-02 ( -15.44%)
   displ. norm   :     0.5979063 α      lambda       -0.2125874E-02
   maximum displ.:     0.2973545 α      in ANC's #5, #2, #8, ...

........................................................................
.............................. CYCLE    7 ..............................
........................................................................
   1    -63.9844927 -0.639845E+02  0.178E-01    3.12       0.0  T
   2    -63.9845290 -0.363406E-04  0.958E-02    3.14       1.0  T
   3    -63.9845173  0.116830E-04  0.292E-02    3.13       1.0  T
   4    -63.9845269 -0.958516E-05  0.159E-02    3.13       1.0  T
   5    -63.9845342 -0.727698E-05  0.491E-03    3.13       3.0  T
   6    -63.9845344 -0.176049E-06  0.178E-03    3.13       8.2  T
   7    -63.9845345 -0.118418E-06  0.531E-04    3.13      27.5  T
   8    -63.9845345 -0.263407E-08  0.315E-04    3.13      46.3  T
     SCC iter.                  ...        0 min,  0.013 sec
     gradient                   ...        0 min,  0.010 sec
 * total energy  :   -63.1243612 Eh     change       -0.1719279E-02 Eh
   gradient norm :     0.0131650 Eh/α   predicted    -0.1442934E-02 ( -16.07%)
   displ. norm   :     0.6294882 α      lambda       -0.1905808E-02
   maximum displ.:     0.3314382 α      in ANC's #2, #5, #3, ...

........................................................................
.............................. CYCLE    8 ..............................
........................................................................
   1    -63.9892954 -0.639893E+02  0.176E-01    3.15       0.0  T
   2    -63.9893443 -0.489109E-04  0.920E-02    3.18       1.0  T
   3    -63.9893374  0.686771E-05  0.297E-02    3.17       1.0  T
   4    -63.9893436 -0.618027E-05  0.149E-02    3.18       1.0  T
   5    -63.9893496 -0.600437E-05  0.527E-03    3.18       2.8  T
   6    -63.9893499 -0.268186E-06  0.151E-03    3.17       9.6  T
   7    -63.9893499 -0.738741E-07  0.444E-04    3.17      32.8  T
   8    -63.9893499 -0.553662E-09  0.279E-04    3.17      52.4  T
     SCC iter.                  ...        0 min,  0.013 sec
     gradient                   ...        0 min,  0.010 sec
 * total energy  :   -63.1258727 Eh     change       -0.1511524E-02 Eh
   gradient norm :     0.0088182 Eh/α   predicted    -0.1330502E-02 ( -11.98%)
   displ. norm   :     0.6406133 α      lambda       -0.1559530E-02
   maximum displ.:     0.3498719 α      in ANC's #2, #5, #3, ...

........................................................................
.............................. CYCLE    9 ..............................
........................................................................
   1    -63.9938789 -0.639939E+02  0.166E-01    3.19       0.0  T
   2    -63.9939103 -0.313971E-04  0.876E-02    3.21       1.0  T
   3    -63.9939036  0.674449E-05  0.251E-02    3.19       1.0  T
   4    -63.9939074 -0.384143E-05  0.148E-02    3.20       1.0  T
   5    -63.9939143 -0.682110E-05  0.497E-03    3.20       2.9  T
   6    -63.9939145 -0.264302E-06  0.118E-03    3.20      12.3  T
   7    -63.9939146 -0.453865E-07  0.455E-04    3.20      32.1  T
   8    -63.9939146 -0.149058E-08  0.245E-04    3.20      59.5  T
     SCC iter.                  ...        0 min,  0.013 sec
     gradient                   ...        0 min,  0.010 sec
 * total energy  :   -63.1270293 Eh     change       -0.1156526E-02 Eh
   gradient norm :     0.0091775 Eh/α   predicted    -0.1099769E-02 (  -4.91%)
   displ. norm   :     0.6362311 α      lambda       -0.1190092E-02
   maximum displ.:     0.3539947 α      in ANC's #2, #5, #3, ...

........................................................................
.............................. CYCLE   10 ..............................
........................................................................
   1    -63.9945581 -0.639946E+02  0.165E-01    3.21       0.0  T
   2    -63.9945752 -0.170629E-04  0.856E-02    3.23       1.0  T
   3    -63.9945646  0.105404E-04  0.248E-02    3.22       1.0  T
   4    -63.9945762 -0.115764E-04  0.126E-02    3.23       1.2  T
   5    -63.9945795 -0.330892E-05  0.360E-03    3.23       4.0  T
   6    -63.9945796 -0.999403E-07  0.101E-03    3.23      14.5  T
   7    -63.9945796 -0.300487E-07  0.450E-04    3.23      32.4  T
   8    -63.9945796 -0.102789E-08  0.209E-04    3.23      69.8  T
     SCC iter.                  ...        0 min,  0.013 sec
     gradient                   ...        0 min,  0.010 sec
 * total energy  :   -63.1278848 Eh     change       -0.8555542E-03 Eh
   gradient norm :     0.0102776 Eh/α   predicted    -0.8359185E-03 (  -2.30%)
   displ. norm   :     0.5525617 α      lambda       -0.1072235E-02
   maximum displ.:     0.2855151 α      in ANC's #2, #5, #3, ...

........................................................................
.............................. CYCLE   11 ..............................
........................................................................
   1    -64.0024793 -0.640025E+02  0.123E-01    3.22       0.0  T
   2    -64.0024944 -0.150747E-04  0.682E-02    3.24       1.0  T
   3    -64.0024766  0.177931E-04  0.263E-02    3.22       1.0  T
   4    -64.0024968 -0.201616E-04  0.107E-02    3.23       1.4  T
   5    -64.0024994 -0.268129E-05  0.388E-03    3.23       3.8  T
   6    -64.0024996 -0.124629E-06  0.161E-03    3.23       9.1  T
   7    -64.0024996 -0.791335E-07  0.462E-04    3.23      31.5  T
   8    -64.0024997 -0.203073E-08  0.270E-04    3.23      54.1  T
     SCC iter.                  ...        0 min,  0.013 sec
     gradient                   ...        0 min,  0.010 sec
 * total energy  :   -63.1283714 Eh     change       -0.4865651E-03 Eh
   gradient norm :     0.0155040 Eh/α   predicted    -0.6998155E-03 (  43.83%)
   displ. norm   :     0.5299695 α      lambda       -0.1208221E-02
   maximum displ.:     0.3007948 α      in ANC's #2, #5, #1, ...

........................................................................
.............................. CYCLE   12 ..............................
........................................................................
   1    -63.9971425 -0.639971E+02  0.153E-01    3.22       0.0  T
   2    -63.9971534 -0.109004E-04  0.802E-02    3.23       1.0  T
   3    -63.9971470  0.644277E-05  0.199E-02    3.23       1.0  T
   4    -63.9971549 -0.795032E-05  0.109E-02    3.23       1.3  T
   5    -63.9971570 -0.206238E-05  0.214E-03    3.23       6.8  T
   6    -63.9971571 -0.897633E-07  0.101E-03    3.23      14.5  T
   7    -63.9971571 -0.287231E-07  0.489E-04    3.23      29.9  T
   8    -63.9971571 -0.139436E-08  0.217E-04    3.23      67.3  T
     SCC iter.                  ...        0 min,  0.013 sec
     gradient                   ...        0 min,  0.010 sec
 * total energy  :   -63.1290713 Eh     change       -0.6999260E-03 Eh
   gradient norm :     0.0118035 Eh/α   predicted    -0.7738008E-03 (  10.55%)
   displ. norm   :     0.3560724 α      lambda       -0.5330780E-03
   maximum displ.:     0.1923361 α      in ANC's #2, #5, #1, ...

........................................................................
.............................. CYCLE   13 ..............................
........................................................................
   1    -63.9964543 -0.639965E+02  0.791E-02    3.24       0.0  T
   2    -63.9964600 -0.575242E-05  0.405E-02    3.24       1.0  T
   3    -63.9964578  0.221264E-05  0.123E-02    3.24       1.2  T
   4    -63.9964604 -0.259424E-05  0.641E-03    3.24       2.3  T
   5    -63.9964612 -0.772717E-06  0.238E-03    3.24       6.1  T
   6    -63.9964612 -0.664563E-07  0.763E-04    3.24      19.1  T
   7    -63.9964613 -0.212999E-07  0.253E-04    3.24      57.7  T
     SCC iter.                  ...        0 min,  0.011 sec
     gradient                   ...        0 min,  0.010 sec
 * total energy  :   -63.1295033 Eh     change       -0.4319489E-03 Eh
   gradient norm :     0.0085334 Eh/α   predicted    -0.3003373E-03 ( -30.47%)
   displ. norm   :     0.5116537 α      lambda       -0.9262383E-03
   maximum displ.:     0.2274625 α      in ANC's #1, #2, #8, ...

........................................................................
.............................. CYCLE   14 ..............................
........................................................................
   1    -63.9998465 -0.639998E+02  0.110E-01    3.24       0.0  T
   2    -63.9998642 -0.177493E-04  0.571E-02    3.24       1.0  T
   3    -63.9998556  0.860786E-05  0.219E-02    3.24       1.0  T
   4    -63.9998643 -0.868867E-05  0.108E-02    3.24       1.3  T
   5    -63.9998675 -0.324922E-05  0.369E-03    3.24       3.9  T
   6    -63.9998676 -0.848804E-07  0.109E-03    3.24      13.3  T
   7    -63.9998677 -0.421173E-07  0.362E-04    3.24      40.3  T
   8    -63.9998677 -0.792703E-09  0.194E-04    3.24      75.4  T
     SCC iter.                  ...        0 min,  0.013 sec
     gradient                   ...        0 min,  0.010 sec
 * total energy  :   -63.1301148 Eh     change       -0.6115382E-03 Eh
   gradient norm :     0.0084755 Eh/α   predicted    -0.5843591E-03 (  -4.44%)
   displ. norm   :     0.5643214 α      lambda       -0.5975367E-03
   maximum displ.:     0.3137507 α      in ANC's #2, #1, #5, ...

........................................................................
.............................. CYCLE   15 ..............................
........................................................................
   1    -63.9955275 -0.639955E+02  0.123E-01    3.24       0.0  T
   2    -63.9955363 -0.883703E-05  0.631E-02    3.24       1.0  T
   3    -63.9955280  0.836409E-05  0.201E-02    3.24       1.0  T
   4    -63.9955382 -0.102414E-04  0.920E-03    3.24       1.6  T
   5    -63.9955393 -0.107312E-05  0.247E-03    3.24       5.9  T
   6    -63.9955394 -0.692382E-07  0.109E-03    3.24      13.4  T
   7    -63.9955394 -0.448288E-07  0.384E-04    3.24      38.0  T
   8    -63.9955394 -0.822098E-09  0.159E-04    3.24      92.0  T
     SCC iter.                  ...        0 min,  0.013 sec
     gradient                   ...        0 min,  0.010 sec
 * total energy  :   -63.1304631 Eh     change       -0.3483416E-03 Eh
   gradient norm :     0.0115159 Eh/α   predicted    -0.3939134E-03 (  13.08%)
   displ. norm   :     0.3572158 α      lambda       -0.5043128E-03
   maximum displ.:     0.1826093 α      in ANC's #2, #1, #4, ...

........................................................................
.............................. CYCLE   16 ..............................
........................................................................
   1    -63.9979833 -0.639980E+02  0.784E-02    3.24       0.0  T
   2    -63.9979866 -0.321894E-05  0.414E-02    3.24       1.0  T
   3    -63.9979790  0.756212E-05  0.163E-02    3.24       1.0  T
   4    -63.9979880 -0.902937E-05  0.607E-03    3.24       2.4  T
   5    -63.9979883 -0.227306E-06  0.245E-03    3.24       6.0  T
   6    -63.9979884 -0.182540E-06  0.530E-04    3.24      27.5  T
   7    -63.9979884 -0.403717E-08  0.311E-04    3.24      46.9  T
     SCC iter.                  ...        0 min,  0.012 sec
     gradient                   ...        0 min,  0.011 sec
 * total energy  :   -63.1307899 Eh     change       -0.3267659E-03 Eh
   gradient norm :     0.0098018 Eh/α   predicted    -0.2843332E-03 ( -12.99%)
   displ. norm   :     0.3596962 α      lambda       -0.5103287E-03
   maximum displ.:     0.1552936 α      in ANC's #2, #4, #1, ...

........................................................................
.............................. CYCLE   17 ..............................
........................................................................
   1    -63.9990333 -0.639990E+02  0.720E-02    3.25       0.0  T
   2    -63.9990386 -0.531512E-05  0.377E-02    3.26       1.0  T
   3    -63.9990308  0.779772E-05  0.171E-02    3.26       1.0  T
   4    -63.9990396 -0.886736E-05  0.667E-03    3.26       2.2  T
   5    -63.9990406 -0.935926E-06  0.232E-03    3.26       6.3  T
   6    -63.9990406 -0.216016E-07  0.723E-04    3.26      20.2  T
   7    -63.9990406 -0.142395E-07  0.349E-04    3.26      41.8  T
     SCC iter.                  ...        0 min,  0.012 sec
     gradient                   ...        0 min,  0.010 sec
 * total energy  :   -63.1311275 Eh     change       -0.3376269E-03 Eh
   gradient norm :     0.0112385 Eh/α   predicted    -0.2881793E-03 ( -14.65%)
   displ. norm   :     0.3625103 α      lambda       -0.5196420E-03
   maximum displ.:     0.1951820 α      in ANC's #4, #1, #2, ...

........................................................................
.............................. CYCLE   18 ..............................
........................................................................
   1    -64.0024356 -0.640024E+02  0.797E-02    3.26       0.0  T
   2    -64.0024518 -0.162272E-04  0.415E-02    3.27       1.0  T
   3    -64.0024478  0.401221E-05  0.177E-02    3.26       1.0  T
   4    -64.0024505 -0.263529E-05  0.983E-03    3.26       1.5  T
   5    -64.0024540 -0.354425E-05  0.256E-03    3.27       5.7  T
   6    -64.0024540 -0.165214E-07  0.990E-04    3.26      14.7  T
   7    -64.0024541 -0.310077E-07  0.254E-04    3.26      57.4  T
     SCC iter.                  ...        0 min,  0.012 sec
     gradient                   ...        0 min,  0.010 sec
 * total energy  :   -63.1314619 Eh     change       -0.3343498E-03 Eh
   gradient norm :     0.0087490 Eh/α   predicted    -0.2939662E-03 ( -12.08%)
   displ. norm   :     0.4749242 α      lambda       -0.5927511E-03
   maximum displ.:     0.2023529 α      in ANC's #1, #4, #2, ...

........................................................................
.............................. CYCLE   19 ..............................
........................................................................
   1    -63.9974506 -0.639975E+02  0.122E-01    3.27       0.0  T
   2    -63.9974730 -0.223856E-04  0.605E-02    3.28       1.0  T
   3    -63.9974689  0.405459E-05  0.198E-02    3.27       1.0  T
   4    -63.9974728 -0.384178E-05  0.109E-02    3.27       1.3  T
   5    -63.9974758 -0.304406E-05  0.370E-03    3.27       3.9  T
   6    -63.9974759 -0.821459E-07  0.695E-04    3.27      21.0  T
   7    -63.9974759 -0.142540E-07  0.318E-04    3.27      45.9  T
     SCC iter.                  ...        0 min,  0.012 sec
     gradient                   ...        0 min,  0.010 sec
 * total energy  :   -63.1317439 Eh     change       -0.2820702E-03 Eh
   gradient norm :     0.0148553 Eh/α   predicted    -0.3632277E-03 (  28.77%)
   displ. norm   :     0.2890171 α      lambda       -0.7251248E-03
   maximum displ.:     0.1704779 α      in ANC's #4, #3, #1, ...

........................................................................
.............................. CYCLE   20 ..............................
........................................................................
   1    -63.9990954 -0.639991E+02  0.774E-02    3.27       0.0  T
   2    -63.9991046 -0.920441E-05  0.435E-02    3.28       1.0  T
   3    -63.9990954  0.915730E-05  0.191E-02    3.27       1.0  T
   4    -63.9991048 -0.942974E-05  0.742E-03    3.27       2.0  T
   5    -63.9991068 -0.192451E-05  0.210E-03    3.27       7.0  T
   6    -63.9991068 -0.107511E-07  0.943E-04    3.27      15.5  T
   7    -63.9991068 -0.136444E-07  0.502E-04    3.27      29.0  T
     SCC iter.                  ...        0 min,  0.012 sec
     gradient                   ...        0 min,  0.010 sec
 * total energy  :   -63.1321198 Eh     change       -0.3758108E-03 Eh
   gradient norm :     0.0138008 Eh/α   predicted    -0.3928495E-03 (   4.53%)
   displ. norm   :     0.4142591 α      lambda       -0.7989175E-03
   maximum displ.:     0.2014125 α      in ANC's #4, #1, #16, ...
 * RMSD in coord.:     1.0460951 α      energy gain  -0.3875715E-01 Eh

generating ANC from model Hessian ...
Using Lindh-Hessian (1995)
 Shifting diagonal of input Hessian by   9.641119130572173E-003
 Lowest  eigenvalues of input Hessian
    0.000000    0.000000    0.000000    0.000000    0.000000    0.000000
    0.010000    0.010073    0.010855    0.011316    0.011712    0.012598
    0.013043    0.013867    0.014086    0.015318    0.015545    0.016386
 Highest eigenvalues
    1.527210    1.641001    1.893771    1.923040    1.949065    2.175483
 

........................................................................
.............................. CYCLE   21 ..............................
........................................................................
   1    -63.9983771 -0.639984E+02  0.976E-02    3.26       0.0  T
   2    -63.9983843 -0.723489E-05  0.548E-02    3.26       1.0  T
   3    -63.9983818  0.258926E-05  0.126E-02    3.26       1.2  T
   4    -63.9983842 -0.242273E-05  0.697E-03    3.26       2.1  T
   5    -63.9983854 -0.124497E-05  0.288E-03    3.26       5.1  T
   6    -63.9983856 -0.140102E-06  0.875E-04    3.26      16.7  T
   7    -63.9983856 -0.199869E-07  0.392E-04    3.26      37.2  T
     SCC iter.                  ...        0 min,  0.011 sec
     gradient                   ...        0 min,  0.010 sec
 * total energy  :   -63.1326400 Eh     change       -0.5202115E-03 Eh
   gradient norm :     0.0122601 Eh/α   predicted     0.0000000E+00 (-100.00%)
   displ. norm   :     0.1231718 α      lambda       -0.4968292E-03
   maximum displ.:     0.0499943 α      in ANC's #14, #1, #13, ...

........................................................................
.............................. CYCLE   22 ..............................
........................................................................
   1    -64.0013646 -0.640014E+02  0.537E-02    3.27       0.0  T
   2    -64.0013670 -0.235249E-05  0.297E-02    3.26       1.0  T
   3    -64.0013622  0.482361E-05  0.133E-02    3.27       1.1  T
   4    -64.0013681 -0.594761E-05  0.394E-03    3.27       3.7  T
   5    -64.0013682 -0.128009E-06  0.150E-03    3.27       9.7  T
   6    -64.0013683 -0.210028E-07  0.551E-04    3.27      26.5  T
   7    -64.0013683 -0.835038E-08  0.218E-04    3.27      66.8  T
     SCC iter.                  ...        0 min,  0.011 sec
     gradient                   ...        0 min,  0.010 sec
 * total energy  :   -63.1329939 Eh     change       -0.3539313E-03 Eh
   gradient norm :     0.0051527 Eh/α   predicted    -0.2521841E-03 ( -28.75%)
   displ. norm   :     0.2231244 α      lambda       -0.4209329E-03
   maximum displ.:     0.1034565 α      in ANC's #1, #14, #15, ...

........................................................................
.............................. CYCLE   23 ..............................
........................................................................
   1    -64.0030843 -0.640031E+02  0.710E-02    3.27       0.0  T
   2    -64.0030880 -0.364013E-05  0.391E-02    3.27       1.0  T
   3    -64.0030806  0.736478E-05  0.161E-02    3.28       1.0  T
   4    -64.0030893 -0.871612E-05  0.520E-03    3.28       2.8  T
   5    -64.0030897 -0.350361E-06  0.195E-03    3.27       7.5  T
   6    -64.0030897 -0.259689E-07  0.916E-04    3.27      15.9  T
   7    -64.0030897 -0.324867E-07  0.265E-04    3.27      55.1  T
     SCC iter.                  ...        0 min,  0.011 sec
     gradient                   ...        0 min,  0.010 sec
 * total energy  :   -63.1333044 Eh     change       -0.3105280E-03 Eh
   gradient norm :     0.0045194 Eh/α   predicted    -0.2210015E-03 ( -28.83%)
   displ. norm   :     0.3402435 α      lambda       -0.4186916E-03
   maximum displ.:     0.1630079 α      in ANC's #1, #14, #3, ...

........................................................................
.............................. CYCLE   24 ..............................
........................................................................
   1    -64.0019034 -0.640019E+02  0.931E-02    3.27       0.0  T
   2    -64.0019093 -0.591983E-05  0.509E-02    3.27       1.0  T
   3    -64.0018971  0.122121E-04  0.205E-02    3.28       1.0  T
   4    -64.0019115 -0.143194E-04  0.701E-03    3.28       2.1  T
   5    -64.0019121 -0.675369E-06  0.257E-03    3.28       5.7  T
   6    -64.0019122 -0.246656E-07  0.130E-03    3.28      11.2  T
   7    -64.0019122 -0.637908E-07  0.369E-04    3.28      39.6  T
   8    -64.0019122 -0.358099E-09  0.171E-04    3.28      85.3  T
     SCC iter.                  ...        0 min,  0.013 sec
     gradient                   ...        0 min,  0.010 sec
 * total energy  :   -63.1336101 Eh     change       -0.3056517E-03 Eh
   gradient norm :     0.0095405 Eh/α   predicted    -0.2335819E-03 ( -23.58%)
   displ. norm   :     0.3237429 α      lambda       -0.3432025E-03
   maximum displ.:     0.1756125 α      in ANC's #1, #14, #16, ...

........................................................................
.............................. CYCLE   25 ..............................
........................................................................
   1    -64.0004085 -0.640004E+02  0.708E-02    3.28       0.0  T
   2    -64.0004105 -0.199362E-05  0.396E-02    3.28       1.0  T
   3    -64.0004024  0.804681E-05  0.158E-02    3.28       1.0  T
   4    -64.0004116 -0.922094E-05  0.487E-03    3.28       3.0  T
   5    -64.0004119 -0.243670E-06  0.164E-03    3.28       8.9  T
   6    -64.0004119 -0.285554E-07  0.848E-04    3.28      17.2  T
   7    -64.0004119 -0.240225E-07  0.305E-04    3.28      47.8  T
     SCC iter.                  ...        0 min,  0.011 sec
     gradient                   ...        0 min,  0.010 sec
 * total energy  :   -63.1338579 Eh     change       -0.2478392E-03 Eh
   gradient norm :     0.0109423 Eh/α   predicted    -0.1896137E-03 ( -23.49%)
   displ. norm   :     0.2654063 α      lambda       -0.3864845E-03
   maximum displ.:     0.1738786 α      in ANC's #1, #16, #3, ...

........................................................................
.............................. CYCLE   26 ..............................
........................................................................
   1    -64.0014342 -0.640014E+02  0.443E-02    3.29       0.0  T
   2    -64.0014353 -0.117933E-05  0.256E-02    3.29       1.0  T
   3    -64.0014324  0.294373E-05  0.944E-03    3.29       1.5  T
   4    -64.0014357 -0.331161E-05  0.303E-03    3.29       4.8  T
   5    -64.0014359 -0.149793E-06  0.109E-03    3.29      13.4  T
   6    -64.0014359 -0.141910E-07  0.473E-04    3.29      30.8  T
   7    -64.0014359 -0.309493E-08  0.276E-04    3.29      52.9  T
     SCC iter.                  ...        0 min,  0.011 sec
     gradient                   ...        0 min,  0.010 sec
 * total energy  :   -63.1341402 Eh     change       -0.2822630E-03 Eh
   gradient norm :     0.0059543 Eh/α   predicted    -0.2068577E-03 ( -26.71%)
   displ. norm   :     0.3024996 α      lambda       -0.2763214E-03
   maximum displ.:     0.2045914 α      in ANC's #1, #16, #3, ...

........................................................................
.............................. CYCLE   27 ..............................
........................................................................
   1    -64.0019962 -0.640020E+02  0.438E-02    3.30       0.0  T
   2    -64.0019975 -0.132121E-05  0.251E-02    3.30       1.0  T
   3    -64.0019974  0.101502E-06  0.462E-03    3.30       3.2  T
   4    -64.0019976 -0.174830E-06  0.230E-03    3.30       6.3  T
   5    -64.0019977 -0.100722E-06  0.102E-03    3.30      14.2  T
   6    -64.0019977 -0.242298E-07  0.359E-04    3.30      40.6  T
   7    -64.0019977 -0.178953E-08  0.206E-04    3.30      70.7  T
     SCC iter.                  ...        0 min,  0.011 sec
     gradient                   ...        0 min,  0.010 sec
 * total energy  :   -63.1343532 Eh     change       -0.2129696E-03 Eh
   gradient norm :     0.0053072 Eh/α   predicted    -0.1508079E-03 ( -29.19%)
   displ. norm   :     0.2931005 α      lambda       -0.2578057E-03
   maximum displ.:     0.2183213 α      in ANC's #1, #3, #16, ...

........................................................................
.............................. CYCLE   28 ..............................
........................................................................
   1    -64.0039287 -0.640039E+02  0.500E-02    3.30       0.0  T
   2    -64.0039327 -0.407467E-05  0.280E-02    3.31       1.0  T
   3    -64.0039313  0.141555E-05  0.940E-03    3.30       1.6  T
   4    -64.0039325 -0.114325E-05  0.478E-03    3.30       3.1  T
   5    -64.0039333 -0.832082E-06  0.129E-03    3.30      11.3  T
   6    -64.0039333 -0.430704E-08  0.578E-04    3.30      25.2  T
   7    -64.0039333 -0.948667E-08  0.250E-04    3.30      58.3  T
     SCC iter.                  ...        0 min,  0.011 sec
     gradient                   ...        0 min,  0.010 sec
 * total energy  :   -63.1345397 Eh     change       -0.1865934E-03 Eh
   gradient norm :     0.0055329 Eh/α   predicted    -0.1399787E-03 ( -24.98%)
   displ. norm   :     0.3950237 α      lambda       -0.2328819E-03
   maximum displ.:     0.2773441 α      in ANC's #1, #14, #16, ...

........................................................................
.............................. CYCLE   29 ..............................
........................................................................
   1    -64.0016341 -0.640016E+02  0.635E-02    3.30       0.0  T
   2    -64.0016382 -0.404852E-05  0.364E-02    3.31       1.0  T
   3    -64.0016367  0.151614E-05  0.947E-03    3.30       1.5  T
   4    -64.0016380 -0.134468E-05  0.461E-03    3.30       3.2  T
   5    -64.0016388 -0.763182E-06  0.137E-03    3.30      10.6  T
   6    -64.0016388 -0.793771E-08  0.613E-04    3.30      23.8  T
   7    -64.0016388 -0.926579E-08  0.278E-04    3.30      52.4  T
     SCC iter.                  ...        0 min,  0.011 sec
     gradient                   ...        0 min,  0.010 sec
 * total energy  :   -63.1346692 Eh     change       -0.1294764E-03 Eh
   gradient norm :     0.0067527 Eh/α   predicted    -0.1346113E-03 (   3.97%)
   displ. norm   :     0.1932778 α      lambda       -0.1961264E-03
   maximum displ.:     0.1547308 α      in ANC's #1, #11, #10, ...

........................................................................
.............................. CYCLE   30 ..............................
........................................................................
   1    -64.0038207 -0.640038E+02  0.493E-02    3.29       0.0  T
   2    -64.0038235 -0.274693E-05  0.283E-02    3.30       1.0  T
   3    -64.0038199  0.361767E-05  0.111E-02    3.30       1.3  T
   4    -64.0038238 -0.392261E-05  0.382E-03    3.30       3.8  T
   5    -64.0038243 -0.460171E-06  0.112E-03    3.30      13.1  T
   6    -64.0038243  0.108491E-08  0.616E-04    3.30      23.7  T
   7    -64.0038243 -0.114578E-07  0.193E-04    3.30      75.5  T
     SCC iter.                  ...        0 min,  0.012 sec
     gradient                   ...        0 min,  0.011 sec
 * total energy  :   -63.1348067 Eh     change       -0.1375143E-03 Eh
   gradient norm :     0.0038955 Eh/α   predicted    -0.1017297E-03 ( -26.02%)
   displ. norm   :     0.2102486 α      lambda       -0.1114820E-03
   maximum displ.:     0.1669053 α      in ANC's #1, #11, #14, ...

........................................................................
.............................. CYCLE   31 ..............................
........................................................................
   1    -64.0043106 -0.640043E+02  0.480E-02    3.29       0.0  T
   2    -64.0043111 -0.557623E-06  0.281E-02    3.30       1.0  T
   3    -64.0043083  0.282987E-05  0.861E-03    3.30       1.7  T
   4    -64.0043114 -0.314943E-05  0.184E-03    3.30       7.9  T
   5    -64.0043115 -0.550326E-07  0.733E-04    3.30      19.9  T
   6    -64.0043115 -0.360248E-08  0.351E-04    3.30      41.6  T
     SCC iter.                  ...        0 min,  0.010 sec
     gradient                   ...        0 min,  0.010 sec
 * total energy  :   -63.1349010 Eh     change       -0.9425808E-04 Eh
   gradient norm :     0.0036331 Eh/α   predicted    -0.5820539E-04 ( -38.25%)
   displ. norm   :     0.2501777 α      lambda       -0.1312542E-03
   maximum displ.:     0.1929882 α      in ANC's #1, #11, #14, ...

........................................................................
.............................. CYCLE   32 ..............................
........................................................................
   1    -64.0043978 -0.640044E+02  0.622E-02    3.29       0.0  T
   2    -64.0043984 -0.562180E-06  0.366E-02    3.29       1.0  T
   3    -64.0043942  0.417796E-05  0.103E-02    3.29       1.4  T
   4    -64.0043989 -0.464142E-05  0.185E-03    3.29       7.9  T
   5    -64.0043989 -0.345425E-07  0.767E-04    3.29      19.0  T
   6    -64.0043989 -0.673533E-08  0.361E-04    3.29      40.4  T
     SCC iter.                  ...        0 min,  0.010 sec
     gradient                   ...        0 min,  0.010 sec
 * total energy  :   -63.1350149 Eh     change       -0.1138849E-03 Eh
   gradient norm :     0.0036546 Eh/α   predicted    -0.6973647E-04 ( -38.77%)
   displ. norm   :     0.3433641 α      lambda       -0.1660713E-03
   maximum displ.:     0.2581074 α      in ANC's #1, #11, #12, ...

........................................................................
.............................. CYCLE   33 ..............................
........................................................................
   1    -64.0036528 -0.640037E+02  0.890E-02    3.29       0.0  T
   2    -64.0036540 -0.118152E-05  0.525E-02    3.29       1.0  T
   3    -64.0036454  0.859099E-05  0.148E-02    3.29       1.0  T
   4    -64.0036548 -0.947280E-05  0.257E-03    3.29       5.7  T
   5    -64.0036550 -0.109520E-06  0.115E-03    3.29      12.7  T
   6    -64.0036550 -0.942175E-08  0.529E-04    3.29      27.6  T
   7    -64.0036550 -0.648024E-08  0.282E-04    3.29      51.7  T
     SCC iter.                  ...        0 min,  0.011 sec
     gradient                   ...        0 min,  0.010 sec
 * total energy  :   -63.1351555 Eh     change       -0.1405829E-03 Eh
   gradient norm :     0.0045220 Eh/α   predicted    -0.9282647E-04 ( -33.97%)
   displ. norm   :     0.3819054 α      lambda       -0.1682840E-03
   maximum displ.:     0.2850365 α      in ANC's #1, #11, #6, ...

........................................................................
.............................. CYCLE   34 ..............................
........................................................................
   1    -64.0029725 -0.640030E+02  0.101E-01    3.28       0.0  T
   2    -64.0029740 -0.151691E-05  0.595E-02    3.28       1.0  T
   3    -64.0029632  0.108339E-04  0.167E-02    3.28       1.0  T
   4    -64.0029751 -0.119262E-04  0.306E-03    3.28       4.8  T
   5    -64.0029753 -0.155984E-06  0.134E-03    3.28      10.9  T
   6    -64.0029753 -0.146249E-07  0.595E-04    3.28      24.5  T
   7    -64.0029753 -0.782178E-08  0.330E-04    3.28      44.2  T
     SCC iter.                  ...        0 min,  0.011 sec
     gradient                   ...        0 min,  0.010 sec
 * total energy  :   -63.1352928 Eh     change       -0.1373271E-03 Eh
   gradient norm :     0.0052043 Eh/α   predicted    -0.9641504E-04 ( -29.79%)
   displ. norm   :     0.3470401 α      lambda       -0.1478812E-03
   maximum displ.:     0.2610267 α      in ANC's #1, #11, #6, ...

........................................................................
.............................. CYCLE   35 ..............................
........................................................................
   1    -64.0029233 -0.640029E+02  0.896E-02    3.27       0.0  T
   2    -64.0029244 -0.108998E-05  0.527E-02    3.27       1.0  T
   3    -64.0029173  0.711359E-05  0.136E-02    3.27       1.1  T
   4    -64.0029251 -0.784865E-05  0.259E-03    3.27       5.6  T
   5    -64.0029253 -0.111753E-06  0.119E-03    3.27      12.3  T
   6    -64.0029253 -0.153338E-07  0.501E-04    3.27      29.1  T
   7    -64.0029253 -0.449131E-08  0.300E-04    3.27      48.7  T
     SCC iter.                  ...        0 min,  0.011 sec
     gradient                   ...        0 min,  0.010 sec
 * total energy  :   -63.1354131 Eh     change       -0.1202797E-03 Eh
   gradient norm :     0.0047504 Eh/α   predicted    -0.8284872E-04 ( -31.12%)
   displ. norm   :     0.3132442 α      lambda       -0.1404259E-03
   maximum displ.:     0.2404606 α      in ANC's #1, #11, #3, ...

........................................................................
.............................. CYCLE   36 ..............................
........................................................................
   1    -64.0042611 -0.640043E+02  0.791E-02    3.27       0.0  T
   2    -64.0042621 -0.101586E-05  0.463E-02    3.27       1.0  T
   3    -64.0042567  0.541580E-05  0.121E-02    3.26       1.2  T
   4    -64.0042627 -0.598792E-05  0.257E-03    3.26       5.7  T
   5    -64.0042628 -0.107374E-06  0.108E-03    3.26      13.6  T
   6    -64.0042628 -0.146210E-07  0.449E-04    3.26      32.5  T
   7    -64.0042628 -0.372931E-08  0.272E-04    3.26      53.6  T
     SCC iter.                  ...        0 min,  0.011 sec
     gradient                   ...        0 min,  0.010 sec
 * total energy  :   -63.1355227 Eh     change       -0.1096733E-03 Eh
   gradient norm :     0.0034718 Eh/α   predicted    -0.7710311E-04 ( -29.70%)
   displ. norm   :     0.3393559 α      lambda       -0.1258236E-03
   maximum displ.:     0.2606810 α      in ANC's #1, #6, #11, ...

........................................................................
.............................. CYCLE   37 ..............................
........................................................................
   1    -64.0033890 -0.640034E+02  0.820E-02    3.26       0.0  T
   2    -64.0033904 -0.137757E-05  0.479E-02    3.26       1.0  T
   3    -64.0033856  0.478396E-05  0.115E-02    3.25       1.3  T
   4    -64.0033907 -0.515564E-05  0.318E-03    3.25       4.6  T
   5    -64.0033910 -0.299058E-06  0.119E-03    3.26      12.2  T
   6    -64.0033910 -0.119668E-07  0.471E-04    3.26      31.0  T
   7    -64.0033910 -0.430123E-08  0.257E-04    3.26      56.8  T
     SCC iter.                  ...        0 min,  0.011 sec
     gradient                   ...        0 min,  0.010 sec
 * total energy  :   -63.1356060 Eh     change       -0.8324229E-04 Eh
   gradient norm :     0.0044990 Eh/α   predicted    -0.7015951E-04 ( -15.72%)
   displ. norm   :     0.2225280 α      lambda       -0.1006695E-03
   maximum displ.:     0.1750395 α      in ANC's #1, #3, #11, ...

........................................................................
.............................. CYCLE   38 ..............................
........................................................................
   1    -64.0051451 -0.640051E+02  0.516E-02    3.25       0.0  T
   2    -64.0051466 -0.147289E-05  0.298E-02    3.25       1.0  T
   3    -64.0051448  0.172131E-05  0.772E-03    3.25       1.9  T
   4    -64.0051465 -0.165854E-05  0.333E-03    3.25       4.4  T
   5    -64.0051469 -0.396658E-06  0.885E-04    3.25      16.5  T
   6    -64.0051469 -0.404579E-08  0.304E-04    3.25      48.0  T
     SCC iter.                  ...        0 min,  0.010 sec
     gradient                   ...        0 min,  0.010 sec
 * total energy  :   -63.1356746 Eh     change       -0.6862673E-04 Eh
   gradient norm :     0.0029838 Eh/α   predicted    -0.5282901E-04 ( -23.02%)
   displ. norm   :     0.2049773 α      lambda       -0.5869135E-04
   maximum displ.:     0.1647014 α      in ANC's #1, #7, #3, ...

........................................................................
.............................. CYCLE   39 ..............................
........................................................................
   1    -64.0048575 -0.640049E+02  0.429E-02    3.25       0.0  T
   2    -64.0048583 -0.752949E-06  0.247E-02    3.25       1.0  T
   3    -64.0048572  0.109591E-05  0.601E-03    3.25       2.4  T
   4    -64.0048582 -0.105581E-05  0.265E-03    3.25       5.5  T
   5    -64.0048585 -0.235568E-06  0.746E-04    3.25      19.6  T
   6    -64.0048585 -0.316980E-08  0.263E-04    3.25      55.4  T
     SCC iter.                  ...        0 min,  0.010 sec
     gradient                   ...        0 min,  0.010 sec
 * total energy  :   -63.1357227 Eh     change       -0.4806607E-04 Eh
   gradient norm :     0.0026537 Eh/α   predicted    -0.3058135E-04 ( -36.38%)
   displ. norm   :     0.1458216 α      lambda       -0.5397552E-04
   maximum displ.:     0.1155740 α      in ANC's #1, #7, #3, ...

........................................................................
.............................. CYCLE   40 ..............................
........................................................................
   1    -64.0050975 -0.640051E+02  0.254E-02    3.25       0.0  T
   2    -64.0050978 -0.325794E-06  0.142E-02    3.25       1.0  T
   3    -64.0050975  0.288890E-06  0.364E-03    3.25       4.0  T
   4    -64.0050978 -0.268806E-06  0.184E-03    3.25       7.9  T
   5    -64.0050979 -0.950005E-07  0.520E-04    3.25      28.1  T
   6    -64.0050979 -0.235727E-08  0.116E-04    3.25     126.2  T
     SCC iter.                  ...        0 min,  0.010 sec
     gradient                   ...        0 min,  0.010 sec
 * total energy  :   -63.1357660 Eh     change       -0.4328751E-04 Eh
   gradient norm :     0.0025595 Eh/α   predicted    -0.2756243E-04 ( -36.33%)
   displ. norm   :     0.1656294 α      lambda       -0.5771174E-04
   maximum displ.:     0.1315787 α      in ANC's #1, #5, #7, ...

........................................................................
.............................. CYCLE   41 ..............................
........................................................................
   1    -64.0042386 -0.640042E+02  0.271E-02    3.24       0.0  T
   2    -64.0042388 -0.238862E-06  0.153E-02    3.25       1.0  T
   3    -64.0042384  0.389341E-06  0.383E-03    3.25       3.8  T
   4    -64.0042389 -0.423221E-06  0.170E-03    3.25       8.6  T
   5    -64.0042389 -0.537225E-07  0.470E-04    3.25      31.1  T
   6    -64.0042389 -0.387647E-08  0.166E-04    3.25      87.6  T
     SCC iter.                  ...        0 min,  0.010 sec
     gradient                   ...        0 min,  0.010 sec
 * total energy  :   -63.1358065 Eh     change       -0.4051427E-04 Eh
   gradient norm :     0.0022222 Eh/α   predicted    -0.2965171E-04 ( -26.81%)
   displ. norm   :     0.1350611 α      lambda       -0.3570659E-04
   maximum displ.:     0.1027867 α      in ANC's #1, #5, #14, ...

........................................................................
.............................. CYCLE   42 ..............................
........................................................................
   1    -64.0045175 -0.640045E+02  0.201E-02    3.25       0.0  T
   2    -64.0045177 -0.225672E-06  0.114E-02    3.25       1.3  T
   3    -64.0045170  0.701062E-06  0.476E-03    3.25       3.1  T
   4    -64.0045178 -0.812459E-06  0.142E-03    3.25      10.3  T
   5    -64.0045179 -0.196930E-07  0.512E-04    3.25      28.5  T
   6    -64.0045179 -0.330589E-08  0.207E-04    3.25      70.5  T
     SCC iter.                  ...        0 min,  0.010 sec
     gradient                   ...        0 min,  0.010 sec
 * total energy  :   -63.1358305 Eh     change       -0.2401444E-04 Eh
   gradient norm :     0.0023232 Eh/α   predicted    -0.1818297E-04 ( -24.28%)
   displ. norm   :     0.1032934 α      lambda       -0.2537545E-04
   maximum displ.:     0.0811829 α      in ANC's #1, #5, #14, ...
 * RMSD in coord.:     0.7015451 α      energy gain  -0.3710736E-02 Eh

generating ANC from model Hessian ...
Using Lindh-Hessian (1995)
 Shifting diagonal of input Hessian by   9.631056618814849E-003
 Lowest  eigenvalues of input Hessian
    0.000000    0.000000    0.000000    0.000000    0.000000    0.000000
    0.010000    0.010062    0.010860    0.011278    0.011685    0.012432
    0.013044    0.013839    0.013958    0.015037    0.015471    0.016177
 Highest eigenvalues
    1.523551    1.638713    1.891533    1.921969    1.950704    2.178799
 

........................................................................
.............................. CYCLE   43 ..............................
........................................................................
   1    -64.0043370 -0.640043E+02  0.140E-02    3.25       0.0  T
   2    -64.0043373 -0.278559E-06  0.809E-03    3.25       1.8  T
   3    -64.0043371  0.183858E-06  0.292E-03    3.25       5.0  T
   4    -64.0043373 -0.190381E-06  0.126E-03    3.25      11.6  T
   5    -64.0043374 -0.455774E-07  0.419E-04    3.25      34.8  T
   6    -64.0043374 -0.795779E-09  0.166E-04    3.25      88.0  T
     SCC iter.                  ...        0 min,  0.010 sec
     gradient                   ...        0 min,  0.010 sec
 * total energy  :   -63.1358497 Eh     change       -0.1919548E-04 Eh
   gradient norm :     0.0019842 Eh/α   predicted     0.0000000E+00 (-100.00%)
   displ. norm   :     0.0489809 α      lambda       -0.3945279E-05
   maximum displ.:     0.0279670 α      in ANC's #6, #3, #9, ...

........................................................................
.............................. CYCLE   44 ..............................
........................................................................
   1    -64.0048233 -0.640048E+02  0.129E-02    3.26       0.0  T
   2    -64.0048235 -0.270227E-06  0.758E-03    3.25       1.9  T
   3    -64.0048234  0.152289E-06  0.291E-03    3.25       5.0  T
   4    -64.0048236 -0.204261E-06  0.804E-04    3.25      18.1  T
   5    -64.0048236 -0.884960E-08  0.418E-04    3.25      34.9  T
     SCC iter.                  ...        0 min,  0.008 sec
     gradient                   ...        0 min,  0.010 sec
 * total energy  :   -63.1358739 Eh     change       -0.2418746E-04 Eh
   gradient norm :     0.0007769 Eh/α   predicted    -0.1042268E-04 ( -56.91%)
   displ. norm   :     0.1521703 α      lambda       -0.4069523E-04
   maximum displ.:     0.0885701 α      in ANC's #6, #3, #9, ...

........................................................................
.............................. CYCLE   45 ..............................
........................................................................
   1    -64.0048390 -0.640048E+02  0.336E-02    3.25       0.0  T
   2    -64.0048394 -0.387237E-06  0.196E-02    3.25       1.0  T
   3    -64.0048386  0.777642E-06  0.503E-03    3.25       2.9  T
   4    -64.0048395 -0.858593E-06  0.184E-03    3.25       7.9  T
   5    -64.0048395 -0.549807E-07  0.737E-04    3.25      19.8  T
   6    -64.0048395 -0.791867E-08  0.279E-04    3.25      52.3  T
     SCC iter.                  ...        0 min,  0.010 sec
     gradient                   ...        0 min,  0.010 sec
 * total energy  :   -63.1359208 Eh     change       -0.4694577E-04 Eh
   gradient norm :     0.0020995 Eh/α   predicted    -0.2057840E-04 ( -56.17%)
   displ. norm   :     0.1577281 α      lambda       -0.4872474E-04
   maximum displ.:     0.0894916 α      in ANC's #6, #3, #17, ...

........................................................................
.............................. CYCLE   46 ..............................
........................................................................
   1    -64.0043355 -0.640043E+02  0.322E-02    3.25       0.0  T
   2    -64.0043357 -0.196156E-06  0.187E-02    3.25       1.0  T
   3    -64.0043349  0.788096E-06  0.478E-03    3.25       3.0  T
   4    -64.0043357 -0.876611E-06  0.159E-03    3.25       9.2  T
   5    -64.0043358 -0.343069E-07  0.442E-04    3.25      33.0  T
   6    -64.0043358 -0.200124E-08  0.199E-04    3.25      73.4  T
     SCC iter.                  ...        0 min,  0.010 sec
     gradient                   ...        0 min,  0.010 sec
 * total energy  :   -63.1359615 Eh     change       -0.4064606E-04 Eh
   gradient norm :     0.0026981 Eh/α   predicted    -0.2496933E-04 ( -38.57%)
   displ. norm   :     0.2960629 α      lambda       -0.7733395E-04
   maximum displ.:     0.1639456 α      in ANC's #6, #3, #17, ...

........................................................................
.............................. CYCLE   47 ..............................
........................................................................
   1    -64.0027884 -0.640028E+02  0.582E-02    3.24       0.0  T
   2    -64.0027889 -0.535713E-06  0.340E-02    3.24       1.0  T
   3    -64.0027848  0.409838E-05  0.104E-02    3.24       1.4  T
   4    -64.0027894 -0.454631E-05  0.252E-03    3.24       5.8  T
   5    -64.0027894 -0.747629E-07  0.851E-04    3.24      17.1  T
   6    -64.0027894 -0.767892E-08  0.354E-04    3.24      41.3  T
     SCC iter.                  ...        0 min,  0.010 sec
     gradient                   ...        0 min,  0.010 sec
 * total energy  :   -63.1360047 Eh     change       -0.4327496E-04 Eh
   gradient norm :     0.0048328 Eh/α   predicted    -0.4206594E-04 (  -2.79%)
   displ. norm   :     0.0604162 α      lambda       -0.3807574E-04
   maximum displ.:     0.0311676 α      in ANC's #3, #1, #17, ...

........................................................................
.............................. CYCLE   48 ..............................
........................................................................
   1    -64.0035887 -0.640036E+02  0.121E-02    3.24       0.0  T
   2    -64.0035888 -0.166484E-06  0.710E-03    3.24       2.1  T
   3    -64.0035886  0.245894E-06  0.305E-03    3.24       4.8  T
   4    -64.0035889 -0.270388E-06  0.951E-04    3.24      15.3  T
   5    -64.0035889 -0.289489E-07  0.258E-04    3.24      56.5  T
     SCC iter.                  ...        0 min,  0.008 sec
     gradient                   ...        0 min,  0.010 sec
 * total energy  :   -63.1360355 Eh     change       -0.3080273E-04 Eh
   gradient norm :     0.0028914 Eh/α   predicted    -0.1911047E-04 ( -37.96%)
   displ. norm   :     0.2213981 α      lambda       -0.6091030E-04
   maximum displ.:     0.1106552 α      in ANC's #3, #6, #1, ...

........................................................................
.............................. CYCLE   49 ..............................
........................................................................
   1    -64.0039406 -0.640039E+02  0.416E-02    3.23       0.0  T
   2    -64.0039410 -0.399783E-06  0.246E-02    3.24       1.0  T
   3    -64.0039378  0.320406E-05  0.922E-03    3.24       1.6  T
   4    -64.0039413 -0.353314E-05  0.160E-03    3.24       9.1  T
   5    -64.0039413 -0.457651E-07  0.619E-04    3.24      23.6  T
   6    -64.0039413 -0.999634E-09  0.328E-04    3.24      44.5  T
     SCC iter.                  ...        0 min,  0.010 sec
     gradient                   ...        0 min,  0.010 sec
 * total energy  :   -63.1360756 Eh     change       -0.4006714E-04 Eh
   gradient norm :     0.0019581 Eh/α   predicted    -0.3197294E-04 ( -20.20%)
   displ. norm   :     0.1494810 α      lambda       -0.2633678E-04
   maximum displ.:     0.0583082 α      in ANC's #3, #2, #1, ...

........................................................................
.............................. CYCLE   50 ..............................
........................................................................
   1    -64.0052107 -0.640052E+02  0.283E-02    3.24       0.0  T
   2    -64.0052111 -0.461319E-06  0.167E-02    3.24       1.0  T
   3    -64.0052102  0.986897E-06  0.569E-03    3.24       2.6  T
   4    -64.0052112 -0.105945E-05  0.167E-03    3.24       8.7  T
   5    -64.0052113 -0.810609E-07  0.532E-04    3.24      27.4  T
   6    -64.0052113 -0.245994E-08  0.238E-04    3.24      61.3  T
     SCC iter.                  ...        0 min,  0.010 sec
     gradient                   ...        0 min,  0.010 sec
 * total energy  :   -63.1360969 Eh     change       -0.2125293E-04 Eh
   gradient norm :     0.0021055 Eh/α   predicted    -0.1329934E-04 ( -37.42%)
   displ. norm   :     0.2073959 α      lambda       -0.2690989E-04
   maximum displ.:     0.1048455 α      in ANC's #6, #3, #2, ...

........................................................................
.............................. CYCLE   51 ..............................
........................................................................
   1    -64.0035470 -0.640035E+02  0.404E-02    3.24       0.0  T
   2    -64.0035473 -0.314607E-06  0.236E-02    3.24       1.0  T
   3    -64.0035450  0.228844E-05  0.784E-03    3.24       1.9  T
   4    -64.0035475 -0.251147E-05  0.169E-03    3.24       8.6  T
   5    -64.0035476 -0.665828E-07  0.641E-04    3.24      22.8  T
   6    -64.0035476 -0.129178E-08  0.208E-04    3.24      70.3  T
     SCC iter.                  ...        0 min,  0.010 sec
     gradient                   ...        0 min,  0.010 sec
 * total energy  :   -63.1361024 Eh     change       -0.5532101E-05 Eh
   gradient norm :     0.0033995 Eh/α   predicted    -0.1403741E-04 ( 153.74%)
   displ. norm   :     0.0694496 α      lambda       -0.2947867E-04
   maximum displ.:     0.0401711 α      in ANC's #3, #6, #17, ...

........................................................................
.............................. CYCLE   52 ..............................
........................................................................
   1    -64.0047053 -0.640047E+02  0.145E-02    3.24       0.0  T
   2    -64.0047054 -0.111284E-06  0.839E-03    3.24       1.7  T
   3    -64.0047050  0.431449E-06  0.371E-03    3.24       3.9  T
   4    -64.0047055 -0.498043E-06  0.746E-04    3.24      19.6  T
   5    -64.0047055 -0.116936E-07  0.307E-04    3.24      47.5  T
     SCC iter.                  ...        0 min,  0.008 sec
     gradient                   ...        0 min,  0.010 sec
 * total energy  :   -63.1361216 Eh     change       -0.1922503E-04 Eh
   gradient norm :     0.0014564 Eh/α   predicted    -0.1481969E-04 ( -22.91%)
   displ. norm   :     0.1118934 α      lambda       -0.2019519E-04
   maximum displ.:     0.0654256 α      in ANC's #2, #6, #5, ...

........................................................................
.............................. CYCLE   53 ..............................
........................................................................
   1    -64.0051485 -0.640051E+02  0.229E-02    3.24       0.0  T
   2    -64.0051486 -0.167365E-06  0.134E-02    3.24       1.1  T
   3    -64.0051468  0.189601E-05  0.750E-03    3.24       1.9  T
   4    -64.0051490 -0.222385E-05  0.125E-03    3.24      11.7  T
   5    -64.0051490  0.752223E-09  0.529E-04    3.24      27.6  T
   6    -64.0051490 -0.796219E-08  0.211E-04    3.24      69.0  T
     SCC iter.                  ...        0 min,  0.009 sec
     gradient                   ...        0 min,  0.010 sec
 * total energy  :   -63.1361396 Eh     change       -0.1802107E-04 Eh
   gradient norm :     0.0009964 Eh/α   predicted    -0.1015443E-04 ( -43.65%)
   displ. norm   :     0.1186487 α      lambda       -0.9152338E-05
   maximum displ.:     0.0620273 α      in ANC's #6, #2, #5, ...

........................................................................
.............................. CYCLE   54 ..............................
........................................................................
   1    -64.0045324 -0.640045E+02  0.213E-02    3.24       0.0  T
   2    -64.0045325 -0.135328E-06  0.125E-02    3.24       1.2  T
   3    -64.0045316  0.898199E-06  0.501E-03    3.24       2.9  T
   4    -64.0045326 -0.998396E-06  0.123E-03    3.24      11.9  T
   5    -64.0045327 -0.230418E-07  0.453E-04    3.24      32.2  T
   6    -64.0045327 -0.592379E-09  0.249E-04    3.24      58.6  T
     SCC iter.                  ...        0 min,  0.010 sec
     gradient                   ...        0 min,  0.010 sec
 * total energy  :   -63.1361488 Eh     change       -0.9191744E-05 Eh
   gradient norm :     0.0014829 Eh/α   predicted    -0.4611486E-05 ( -49.83%)
   displ. norm   :     0.0769942 α      lambda       -0.7970834E-05
   maximum displ.:     0.0508312 α      in ANC's #2, #6, #5, ...

........................................................................
.............................. CYCLE   55 ..............................
........................................................................
   1    -64.0044839 -0.640045E+02  0.134E-02    3.24       0.0  T
   2    -64.0044841 -0.169956E-06  0.779E-03    3.24       1.9  T
   3    -64.0044839  0.149802E-06  0.252E-03    3.24       5.8  T
   4    -64.0044841 -0.151675E-06  0.112E-03    3.24      13.1  T
   5    -64.0044841 -0.358654E-07  0.372E-04    3.24      39.2  T
   6    -64.0044841 -0.496556E-09  0.146E-04    3.24     100.2  T
     SCC iter.                  ...        0 min,  0.009 sec
     gradient                   ...        0 min,  0.010 sec
 * total energy  :   -63.1361576 Eh     change       -0.8789965E-05 Eh
   gradient norm :     0.0013405 Eh/α   predicted    -0.3998211E-05 ( -54.51%)
   displ. norm   :     0.0966785 α      lambda       -0.9415425E-05
   maximum displ.:     0.0673087 α      in ANC's #2, #6, #5, ...

........................................................................
.............................. CYCLE   56 ..............................
........................................................................
   1    -64.0046369 -0.640046E+02  0.188E-02    3.24       0.0  T
   2    -64.0046371 -0.210668E-06  0.105E-02    3.24       1.4  T
   3    -64.0046371  0.583663E-07  0.237E-03    3.24       6.1  T
   4    -64.0046371 -0.455694E-07  0.138E-03    3.24      10.6  T
   5    -64.0046371 -0.432030E-07  0.497E-04    3.24      29.3  T
   6    -64.0046372 -0.446147E-08  0.116E-04    3.24     125.6  T
     SCC iter.                  ...        0 min,  0.010 sec
     gradient                   ...        0 min,  0.010 sec
 * total energy  :   -63.1361670 Eh     change       -0.9333749E-05 Eh
   gradient norm :     0.0012578 Eh/α   predicted    -0.4728478E-05 ( -49.34%)
   displ. norm   :     0.0965488 α      lambda       -0.8436625E-05
   maximum displ.:     0.0660696 α      in ANC's #2, #6, #5, ...

........................................................................
.............................. CYCLE   57 ..............................
........................................................................
   1    -64.0045794 -0.640046E+02  0.218E-02    3.23       0.0  T
   2    -64.0045795 -0.134105E-06  0.122E-02    3.23       1.2  T
   3    -64.0045789  0.582597E-06  0.425E-03    3.23       3.4  T
   4    -64.0045796 -0.653990E-06  0.142E-03    3.23      10.3  T
   5    -64.0045796 -0.202366E-07  0.516E-04    3.23      28.3  T
   6    -64.0045796 -0.717412E-08  0.114E-04    3.23     128.1  T
     SCC iter.                  ...        0 min,  0.010 sec
     gradient                   ...        0 min,  0.010 sec
 * total energy  :   -63.1361750 Eh     change       -0.7995966E-05 Eh
   gradient norm :     0.0012908 Eh/α   predicted    -0.4239772E-05 ( -46.98%)
   displ. norm   :     0.0795218 α      lambda       -0.7019285E-05
   maximum displ.:     0.0529085 α      in ANC's #2, #6, #11, ...

........................................................................
.............................. CYCLE   58 ..............................
........................................................................
   1    -64.0047265 -0.640047E+02  0.210E-02    3.23       0.0  T
   2    -64.0047267 -0.123216E-06  0.117E-02    3.23       1.2  T
   3    -64.0047261  0.547595E-06  0.409E-03    3.23       3.6  T
   4    -64.0047267 -0.606038E-06  0.138E-03    3.23      10.6  T
   5    -64.0047268 -0.245440E-07  0.329E-04    3.23      44.4  T
   6    -64.0047268 -0.200401E-08  0.982E-05    3.23     148.6  T
     SCC iter.                  ...        0 min,  0.010 sec
     gradient                   ...        0 min,  0.010 sec
 * total energy  :   -63.1361826 Eh     change       -0.7620672E-05 Eh
   gradient norm :     0.0009152 Eh/α   predicted    -0.3522404E-05 ( -53.78%)
   displ. norm   :     0.0777409 α      lambda       -0.6100884E-05
   maximum displ.:     0.0473572 α      in ANC's #2, #6, #15, ...

........................................................................
.............................. CYCLE   59 ..............................
........................................................................
   1    -64.0046818 -0.640047E+02  0.213E-02    3.23       0.0  T
   2    -64.0046821 -0.299597E-06  0.118E-02    3.23       1.2  T
   3    -64.0046816  0.469945E-06  0.406E-03    3.23       3.6  T
   4    -64.0046821 -0.486049E-06  0.172E-03    3.23       8.5  T
   5    -64.0046822 -0.756154E-07  0.538E-04    3.23      27.1  T
   6    -64.0046822 -0.212692E-08  0.146E-04    3.23     100.1  T
     SCC iter.                  ...        0 min,  0.009 sec
     gradient                   ...        0 min,  0.010 sec
 * total energy  :   -63.1361885 Eh     change       -0.5880773E-05 Eh
   gradient norm :     0.0007695 Eh/α   predicted    -0.3061816E-05 ( -47.94%)
   displ. norm   :     0.0743530 α      lambda        0.1040356E-05
   maximum displ.:     0.0452669 α      in ANC's #2, #6, #15, ...

........................................................................
.............................. CYCLE   60 ..............................
........................................................................
   1    -64.0044884 -0.640045E+02  0.204E-02    3.23       0.0  T
   2    -64.0044887 -0.275842E-06  0.113E-02    3.23       1.3  T
   3    -64.0044883  0.433573E-06  0.391E-03    3.23       3.7  T
   4    -64.0044887 -0.450452E-06  0.164E-03    3.23       8.9  T
   5    -64.0044888 -0.682344E-07  0.520E-04    3.23      28.0  T
   6    -64.0044888 -0.209181E-08  0.141E-04    3.23     103.4  T
     SCC iter.                  ...        0 min,  0.010 sec
     gradient                   ...        0 min,  0.010 sec
 * total energy  :   -63.1361873 Eh     change        0.1133213E-05 Eh
   gradient norm :     0.0015156 Eh/α   predicted     0.5167453E-06 ( -54.40%)
   displ. norm   :     0.0725005 α      lambda       -0.6480341E-05
   maximum displ.:     0.0403152 α      in ANC's #2, #6, #5, ...

........................................................................
.............................. CYCLE   61 ..............................
........................................................................
   1    -64.0053404 -0.640053E+02  0.140E-02    3.23       0.0  T
   2    -64.0053405 -0.106688E-06  0.789E-03    3.23       1.8  T
   3    -64.0053405  0.323546E-07  0.185E-03    3.23       7.9  T
   4    -64.0053405 -0.432942E-07  0.842E-04    3.23      17.3  T
   5    -64.0053406 -0.126968E-07  0.377E-04    3.23      38.7  T
     SCC iter.                  ...        0 min,  0.008 sec
     gradient                   ...        0 min,  0.010 sec
 * total energy  :   -63.1361874 Eh     change       -0.3577887E-07 Eh
   gradient norm :     0.0014900 Eh/α   predicted    -0.3248600E-05 (8979.66%)
   displ. norm   :     0.0568147 α      lambda       -0.7826283E-05
   maximum displ.:     0.0219917 α      in ANC's #11, #1, #3, ...

........................................................................
.............................. CYCLE   62 ..............................
........................................................................
   1    -64.0048892 -0.640049E+02  0.213E-02    3.23       0.0  T
   2    -64.0048896 -0.412936E-06  0.123E-02    3.23       1.2  T
   3    -64.0048886  0.103261E-05  0.569E-03    3.23       2.6  T
   4    -64.0048897 -0.113472E-05  0.168E-03    3.23       8.7  T
   5    -64.0048898 -0.844577E-07  0.499E-04    3.23      29.2  T
   6    -64.0048898  0.276870E-09  0.237E-04    3.23      61.5  T
     SCC iter.                  ...        0 min,  0.010 sec
     gradient                   ...        0 min,  0.010 sec
[...]
H40-C6-C20=117.38              H10-C9-C1=110.47               H11-C9-C1=110.74               H11-C9-H10=108.26              
H12-C9-C1=110.58               H12-C9-H10=108.45              H12-C9-H11=108.25              
 
 selected dihedral angles (degree)
 ---------------------------------
C3-C2-C1-C9=117.31            C3-C2-C1-C13=240.25           C3-C2-C1-H14=358.63           H4-C2-C1-C9=356.40            
H4-C2-C1-C13=119.34           H4-C2-C1-H14=237.72           H5-C2-C1-C9=239.11            H5-C2-C1-C13=  2.04           
H5-C2-C1-H14=120.43           C6-C3-C2-C1= 56.64            C6-C3-C2-H4=178.35            C6-C3-C2-H5=294.56            
H7-C3-C2-C1=296.46            H7-C3-C2-H4= 58.17            H7-C3-C2-H5=174.38            H8-C3-C2-C1=179.43            
H8-C3-C2-H4=301.14            H8-C3-C2-H5= 57.36            C20-C6-C3-C2= 78.26           C20-C6-C3-H7=198.32           
C20-C6-C3-H8=316.83           H40-C6-C3-C2=262.50           H40-C6-C3-H7= 22.56           H40-C6-C3-H8=141.07           
H10-C9-C1-C2=302.02           H10-C9-C1-C13=177.71          H10-C9-C1-H14= 60.96          H11-C9-C1-C2=182.09           
H11-C9-C1-C13= 57.77          H11-C9-C1-H14=301.02          H12-C9-C1-C2= 62.10           H12-C9-C1-C13=297.78          
H12-C9-C1-H14=181.03          
           -------------------------------------------------
          |                Final Singlepoint                |
           -------------------------------------------------

          ...................................................
          :                      SETUP                      :
          :.................................................:
          :  # basis functions                 116          :
          :  # atomic orbitals                 115          :
          :  # shells                           69          :
          :  # electrons                       116          :
          :  max. iterations                   100          :
          :  Hamiltonian                  GFN2-xTB          :
          :  restarted?                      false          :
          :  GBSA solvation                  false          :
          :  PC potential                    false          :
          :  electronic temp.          300.0000000     K    :
          :  accuracy                    1.0000000          :
          :  -> integral cutoff          0.2500000E+02      :
          :  -> integral neglect         0.1000000E-07      :
          :  -> SCF convergence          0.1000000E-05 Eh   :
          :  -> wf. convergence          0.1000000E-03 e    :
          :  Broyden damping             0.4000000          :
          ...................................................

 iter      E             dE          RMSdq      gap      omega  full diag
   1    -64.0048898 -0.640049E+02  0.847E-05    3.23       0.0  T
   2    -64.0048898 -0.176357E-10  0.611E-05    3.23     238.5  T
   3    -64.0048898 -0.327987E-10  0.428E-05    3.23     340.8  T

   *** convergence criteria satisfied after 3 iterations ***

         #    Occupation            Energy/Eh            Energy/eV
      -------------------------------------------------------------
         1        2.0000           -0.7312722             -19.8989
       ...           ...                  ...                  ...
        52        2.0000           -0.4112316             -11.1902
        53        2.0000           -0.4050802             -11.0228
        54        2.0000           -0.4032632             -10.9734
        55        2.0000           -0.3962245             -10.7818
        56        2.0000           -0.3875160             -10.5448
        57        2.0000           -0.3777929             -10.2803
        58        2.0000           -0.3765691             -10.2470 (HOMO)
        59                         -0.2577699              -7.0143 (LUMO)
        60                         -0.2112609              -5.7487
        61                         -0.2068170              -5.6278
        62                         -0.1979803              -5.3873
        63                         -0.1920556              -5.2261
       ...                                ...                  ...
       115                          0.6516017              17.7310
      -------------------------------------------------------------
                  HL-Gap            0.1187992 Eh            3.2327 eV
             Fermi-level           -0.3171695 Eh           -8.6306 eV

 SCC (total)                   0 d,  0 h,  0 min,  0.022 sec
 SCC setup                      ...        0 min,  0.000 sec (  1.556%)
 Dispersion                     ...        0 min,  0.000 sec (  1.018%)
 classical contributions        ...        0 min,  0.000 sec (  0.187%)
 integral evaluation            ...        0 min,  0.006 sec ( 28.317%)
 iterations                     ...        0 min,  0.005 sec ( 22.249%)
 molecular gradient             ...        0 min,  0.010 sec ( 45.202%)
 printout                       ...        0 min,  0.000 sec (  1.370%)

         :::::::::::::::::::::::::::::::::::::::::::::::::::::
         ::                     SUMMARY                     ::
         :::::::::::::::::::::::::::::::::::::::::::::::::::::
         :: total energy             -63.136192266621 Eh    ::
         :: gradient norm              0.000741161071 Eh/a0 ::
         :: HOMO-LUMO gap              3.232691994008 eV    ::
         ::.................................................::
         :: SCC energy               -64.004889834665 Eh    ::
         :: -> isotropic ES            0.050925908770 Eh    ::
         :: -> anisotropic ES          0.006580581272 Eh    ::
         :: -> anisotropic XC          0.028462908602 Eh    ::
         :: -> dispersion             -0.055572181790 Eh    ::
         :: repulsion energy           0.867616666079 Eh    ::
         :: add. restraining           0.000000000000 Eh    ::
         :: total charge               0.000000000000 e     ::
         :::::::::::::::::::::::::::::::::::::::::::::::::::::

           -------------------------------------------------
          |                Property Printout                |
           -------------------------------------------------

    * Orbital Energies and Occupations

         #    Occupation            Energy/Eh            Energy/eV
      -------------------------------------------------------------
         1        2.0000           -0.7312722             -19.8989
       ...           ...                  ...                  ...
        46        2.0000           -0.4400434             -11.9742
        47        2.0000           -0.4369433             -11.8898
        48        2.0000           -0.4336199             -11.7994
        49        2.0000           -0.4282480             -11.6532
        50        2.0000           -0.4239255             -11.5356
        51        2.0000           -0.4161813             -11.3249
        52        2.0000           -0.4112316             -11.1902
        53        2.0000           -0.4050802             -11.0228
        54        2.0000           -0.4032632             -10.9734
        55        2.0000           -0.3962245             -10.7818
        56        2.0000           -0.3875160             -10.5448
        57        2.0000           -0.3777929             -10.2803
        58        2.0000           -0.3765691             -10.2470 (HOMO)
        59                         -0.2577699              -7.0143 (LUMO)
        60                         -0.2112609              -5.7487
        61                         -0.2068170              -5.6278
        62                         -0.1979803              -5.3873
        63                         -0.1920556              -5.2261
        64                         -0.1448541              -3.9417
        65                         -0.0125864              -0.3425
        66                         -0.0032140              -0.0875
        67                          0.0133343               0.3628
        68                          0.0204916               0.5576
        69                          0.0492393               1.3399
       ...                                ...                  ...
       115                          0.6516017              17.7310
      -------------------------------------------------------------
                  HL-Gap            0.1187992 Eh            3.2327 eV
             Fermi-level           -0.3171695 Eh           -8.6306 eV

     #   Z          covCN         q      C6AA      α(0)
     1   6 C        3.850    -0.016    20.831     6.492
     2   6 C        3.803    -0.063    21.713     6.634
     3   6 C        3.803    -0.057    21.599     6.617
     4   1 H        0.924     0.035     2.521     2.483
     5   1 H        0.925     0.038     2.482     2.464
     6   6 C        2.898    -0.045    29.105     8.846
     7   1 H        0.924     0.036     2.507     2.476
     8   1 H        0.924     0.035     2.511     2.478
     9   6 C        3.755    -0.106    22.572     6.774
    10   1 H        0.925     0.036     2.500     2.473
    11   1 H        0.925     0.033     2.541     2.493
    12   1 H        0.925     0.033     2.542     2.494
    13   6 C        3.808    -0.062    21.690     6.630
    14   1 H        0.924     0.040     2.449     2.447
    15   6 C        2.890    -0.040    28.983     8.826
    16   1 H        0.924     0.034     2.527     2.486
    17   1 H        0.924     0.038     2.477     2.461
    18   6 C        2.900    -0.038    28.951     8.822
    19   6 C        3.865    -0.025    20.975     6.513
    20   6 C        2.943    -0.012    28.306     8.726
    21   6 C        3.799     0.146    18.232     6.080
    22   6 C        3.757    -0.111    22.679     6.790
    23   1 H        0.925     0.042     2.428     2.437
    24   1 H        0.924     0.044     2.391     2.418
    25   1 H        0.925     0.055     2.255     2.348
    26   8 O        1.701    -0.316    19.274     5.927
    27   6 C        3.850    -0.094    22.256     6.710
    28   6 C        2.805     0.263    22.574     7.784
    29   1 H        0.924     0.072     2.067     2.248
    30   1 H        0.925     0.071     2.079     2.255
    31  16 S        2.013    -0.162   147.878    20.467
    32   6 C        3.745    -0.054    21.609     6.631
    33   1 H        0.925     0.086     1.922     2.168
    34   1 H        0.925     0.061     2.182     2.310
    35   1 H        0.925     0.058     2.227     2.334
    36   8 O        0.877    -0.374    21.165     6.169
    37   6 C        2.901    -0.035    28.875     8.811
    38   6 C        2.891    -0.050    29.231     8.864
    39   6 C        3.696     0.085    19.336     6.290
    40   1 H        0.926     0.051     2.312     2.378
    41   1 H        0.926     0.033     2.543     2.494
    42   1 H        0.924     0.051     2.310     2.377
    43   1 H        0.923     0.047     2.354     2.399
    44   1 H        0.924     0.041     2.436     2.441
    45   1 H        0.926     0.030     2.587     2.515
    46   1 H        0.925     0.028     2.621     2.532
    47   1 H        0.925     0.039     2.464     2.455

 Mol. C6AA /au·bohr⁶  :      22104.112852
 Mol. C8AA /au·bohr⁸  :     540206.732234
 Mol. α(0) /au        :        228.264766


Wiberg/Mayer (AO) data.
largest (>0.10) Wiberg bond orders for each atom

 ---------------------------------------------------------------------------
     #   Z sym  total        # sym  WBO       # sym  WBO       # sym  WBO
 ---------------------------------------------------------------------------
     1   6 C    3.993 --     9 C    1.010     2 C    0.992    13 C    0.977
                            14 H    0.967
     2   6 C    3.995 --     1 C    0.992     3 C    0.988     4 H    0.976
                             5 H    0.975
     3   6 C    3.996 --     6 C    1.021     2 C    0.988     7 H    0.978
                             8 H    0.969
     4   1 H    0.998 --     2 C    0.976
     5   1 H    0.999 --     2 C    0.975
     6   6 C    3.985 --    20 C    1.884     3 C    1.021    40 H    0.960
     7   1 H    0.998 --     3 C    0.978
     8   1 H    0.998 --     3 C    0.969
     9   6 C    3.996 --     1 C    1.010    12 H    0.987    11 H    0.986
                            10 H    0.986
    10   1 H    0.998 --     9 C    0.986
    11   1 H    0.999 --     9 C    0.986
    12   1 H    0.999 --     9 C    0.987
    13   6 C    3.995 --    15 C    1.021    16 H    0.978     1 C    0.977
                            17 H    0.968
    14   1 H    0.998 --     1 C    0.967
    15   6 C    3.987 --    18 C    1.923    13 C    1.021    46 H    0.966
    16   1 H    0.998 --    13 C    0.978
    17   1 H    0.998 --    13 C    0.968
    18   6 C    3.986 --    15 C    1.923    19 C    0.992    47 H    0.964
    19   6 C    3.995 --    37 C    1.007    18 C    0.992    44 H    0.955
                            21 C    0.921
    20   6 C    3.979 --     6 C    1.884    22 C    1.024    21 C    0.967
    21   6 C    3.946 --    26 O    0.981    20 C    0.967    27 C    0.932
                            19 C    0.921
    22   6 C    3.996 --    20 C    1.024    25 H    0.976    23 H    0.973
                            24 H    0.967
    23   1 H    0.998 --    22 C    0.973
    24   1 H    0.998 --    22 C    0.967
    25   1 H    0.996 --    22 C    0.976
    26   8 O    2.097 --    21 C    0.981    39 C    0.976
    27   6 C    3.991 --    28 C    1.005    29 H    0.960    30 H    0.954
                            21 C    0.932
    28   6 C    3.930 --    36 O    1.800    31 S    1.056    27 C    1.005
    29   1 H    0.994 --    27 C    0.960
    30   1 H    0.995 --    27 C    0.954
    31  16 S    2.373 --    28 C    1.056    32 C    1.013    36 O    0.209
    32   6 C    3.968 --    31 S    1.013    35 H    0.983    34 H    0.982
                            33 H    0.966
    33   1 H    0.993 --    32 C    0.966
    34   1 H    0.996 --    32 C    0.982
    35   1 H    0.996 --    32 C    0.983
    36   8 O    2.129 --    28 C    1.800    31 S    0.209
    37   6 C    3.990 --    38 C    1.906    19 C    1.007    45 H    0.966
    38   6 C    3.989 --    37 C    1.906    39 C    1.022    41 H    0.966
    39   6 C    3.954 --    38 C    1.022    26 O    0.976    42 H    0.954
                            43 H    0.946
    40   1 H    0.997 --     6 C    0.960
    41   1 H    0.997 --    38 C    0.966
    42   1 H    0.997 --    39 C    0.954
    43   1 H    0.997 --    39 C    0.946
    44   1 H    0.998 --    19 C    0.955
    45   1 H    0.998 --    37 C    0.966
    46   1 H    0.999 --    15 C    0.966
    47   1 H    0.998 --    18 C    0.964
 ---------------------------------------------------------------------------

Topologies differ in total number of bonds
Writing topology from bond orders to xtbtopo.mol

molecular dipole:
                 x           y           z       tot (Debye)
 q only:       -0.125      -0.927       0.139
   full:       -0.257      -0.561      -0.068       1.577
molecular quadrupole (traceless):
                xx          xy          yy          xz          yz          zz
 q only:       -3.245      -8.741       4.439       2.902      -2.925      -1.194
  q+dip:       -3.357      -6.110       1.793       1.022      -3.368       1.564
   full:       -3.908      -7.010       1.341       1.919      -2.539       2.567

           -------------------------------------------------
          |                Geometry Summary                 |
           -------------------------------------------------

      molecular mass/u    :      306.4633029
   center of mass at/Å    :        2.5215199      -3.1316242      -0.6830489
  moments of inertia/u·Å² :        0.8165447E+03   0.2967735E+04   0.3022937E+04
rotational constants/cm⁻¹ :        0.2064508E-01   0.5680302E-02   0.5576573E-02

 * 34 selected distances

     #   Z          #   Z                                           value/Å
     2   6 C        3   6 C                                       1.5399232 (max)
     2   6 C        4   1 H                                       1.0924810
     2   6 C        5   1 H                                       1.0893953
     3   6 C        7   1 H                                       1.0914973
     3   6 C        8   1 H                                       1.0918279
     1   6 C        9   6 C                                       1.5275538
     9   6 C       10   1 H                                       1.0877504
     9   6 C       11   1 H                                       1.0880097
     9   6 C       12   1 H                                       1.0884810
     1   6 C       14   1 H                                       1.0924738
    13   6 C       16   1 H                                       1.0915991
    13   6 C       17   1 H                                       1.0926335
    15   6 C       18   6 C                                       1.3227684
     6   6 C       20   6 C                                       1.3287217
    22   6 C       23   1 H                                       1.0883181
    22   6 C       24   1 H                                       1.0904148
    22   6 C       25   1 H                                       1.0841507
    21   6 C       26   8 O                                       1.4113239
    27   6 C       29   1 H                                       1.0934908
    27   6 C       30   1 H                                       1.0874713
    32   6 C       33   1 H                                       1.0886304
    32   6 C       34   1 H                                       1.0844714
    32   6 C       35   1 H                                       1.0859311
    28   6 C       36   8 O                                       1.2012729
    37   6 C       38   6 C                                       1.3228029
    26   8 O       39   6 C                                       1.4138877
     6   6 C       40   1 H                                       1.0787325 (min)
    38   6 C       41   1 H                                       1.0797241
    39   6 C       42   1 H                                       1.0962722
    39   6 C       43   1 H                                       1.1019282
    19   6 C       44   1 H                                       1.0936072
    37   6 C       45   1 H                                       1.0804660
    15   6 C       46   1 H                                       1.0819600
    18   6 C       47   1 H                                       1.0812469

 * 3 distinct bonds (by element types)

   Z      Z             #   av. dist./Å        max./Å        min./Å
   1 H    6 C          26     1.0885756     1.1019282     1.0787325
   6 C    6 C           5     1.4083540     1.5399232     1.3227684
   6 C    8 O           3     1.3421615     1.4138877     1.2012729


optimized geometry written to: xtbopt.xyz


           -------------------------------------------------
          | TOTAL ENERGY              -63.136192266621 Eh   |
          | GRADIENT NORM               0.000741161071 Eh/α |
          | HOMO-LUMO GAP               3.232691994008 eV   |
           -------------------------------------------------

------------------------------------------------------------------------
 * finished run on 2021/06/02 at 09:35:16.480     
------------------------------------------------------------------------
 total:
 * wall-time:     0 d,  0 h,  0 min,  1.973 sec
 *  cpu-time:     0 d,  0 h,  0 min,  7.846 sec
 * ratio c/w:     3.977 speedup
 SCF:
 * wall-time:     0 d,  0 h,  0 min,  0.042 sec
 *  cpu-time:     0 d,  0 h,  0 min,  0.165 sec
 * ratio c/w:     3.919 speedup
 ANC optimizer:
 * wall-time:     0 d,  0 h,  0 min,  1.899 sec
 *  cpu-time:     0 d,  0 h,  0 min,  7.583 sec
 * ratio c/w:     3.993 speedup

