47
 energy: -63.093362614973 gnorm: 0.106833151085 xtb: 6.4.0 (d4b70c2)
C         5.34534000000000   -6.45830000000000   -0.54702000000000
C         4.95556000000000   -6.28360000000000    0.96655000000000
C         4.89713000000000   -4.83479000000000    1.53035000000000
H         5.69623000000000   -6.79269000000000    1.62250000000000
H         3.99292000000000   -6.81051000000000    1.14471000000000
C         4.18609000000000   -3.89497000000000    0.60588000000000
H         5.92570000000000   -4.43178000000000    1.65303000000000
H         4.44253000000000   -4.88573000000000    2.54083000000000
C         6.35235000000000   -7.61172000000000   -0.68635000000000
H         7.26507000000000   -7.39964000000000   -0.08892000000000
H         6.66196000000000   -7.72969000000000   -1.74708000000000
H         5.91074000000000   -8.56851000000000   -0.33283000000000
C         4.11647000000000   -6.80071000000000   -1.46292000000000
H         5.88206000000000   -5.55488000000000   -0.90609000000000
C         2.97298000000000   -5.82345000000000   -1.40173000000000
H         3.71168000000000   -7.77867000000000   -1.12017000000000
H         4.43601000000000   -6.92216000000000   -2.52087000000000
C         3.07094000000000   -4.56244000000000   -1.84785000000000
C         1.97297000000000   -3.54854000000000   -1.56830000000000
C         2.96171000000000   -3.32434000000000    0.75516000000000
C         2.39883000000000   -2.50694000000000   -0.45794000000000
C         2.20501000000000   -3.57325000000000    2.04856000000000
H         1.20535000000000   -3.11292000000000    2.10557000000000
H         2.79102000000000   -3.17585000000000    2.90368000000000
H         2.05763000000000   -4.66612000000000    2.18411000000000
O         3.46114000000000   -1.65339000000000   -0.89629000000000
C         1.16239000000000   -1.64989000000000    0.00275000000000
C         0.56322000000000   -0.68835000000000   -0.99208000000000
H         1.44987000000000   -1.04434000000000    0.89019000000000
H         0.34932000000000   -2.34509000000000    0.29774000000000
S        -1.13061000000000   -0.91131000000000   -1.56105000000000
C        -1.64928000000000    0.79900000000000   -1.20261000000000
H        -1.26800000000000    1.13086000000000   -0.21417000000000
H        -2.75646000000000    0.82916000000000   -1.14717000000000
H        -1.30837000000000    1.47727000000000   -2.01292000000000
O         1.20178000000000    0.27511000000000   -1.38008000000000
C         1.67363000000000   -2.85910000000000   -2.84895000000000
C         2.43448000000000   -1.82603000000000   -3.20175000000000
C         3.49396000000000   -1.26147000000000   -2.27497000000000
H         4.74625000000000   -3.70282000000000   -0.29731000000000
H         2.28812000000000   -1.36631000000000   -4.17417000000000
H         4.48899000000000   -1.49808000000000   -2.70462000000000
H         3.39744000000000   -0.15807000000000   -2.29709000000000
H         1.07162000000000   -4.09600000000000   -1.21143000000000
H         0.90405000000000   -3.23676000000000   -3.51524000000000
H         2.05549000000000   -6.15631000000000   -0.92367000000000
H         4.00142000000000   -4.23021000000000   -2.30263000000000
47
 energy: -63.111245817926 gnorm: 0.038044317355 xtb: 6.4.0 (d4b70c2)
C         5.33962615599302   -6.46835510327004   -0.53621309487767
C         4.95335264175899   -6.28029270181031    0.95627537960655
C         4.88761588040130   -4.83360996410018    1.50498011150686
H         5.69044230029381   -6.80629518095084    1.58095294817835
H         3.99151445405104   -6.77863220825954    1.13087112159673
C         4.17289689697460   -3.88496447100781    0.59569811236371
H         5.91412297066700   -4.45930484067721    1.63395213439894
H         4.43922244188766   -4.87927286867996    2.50431042334909
C         6.35179776930468   -7.60952900825046   -0.68146777407425
H         7.25296064091154   -7.40610504548830   -0.09624240164982
H         6.65176151000957   -7.73223990166952   -1.72642507674052
H         5.92475092682548   -8.55520301875730   -0.33691797427352
C         4.11736753290557   -6.80071147597450   -1.43639020379696
H         5.83456513590367   -5.55634558266775   -0.89799293049005
C         2.98822842723724   -5.81284647419023   -1.36878522592464
H         3.73731984257395   -7.78358174112790   -1.12531752823062
H         4.45844600842005   -6.90105376353304   -2.47681486549392
C         3.06348191132214   -4.56068332860680   -1.80245087622203
C         1.96572264579827   -3.55295395570734   -1.55808099727334
C         2.96988719482202   -3.32457380360226    0.74830453675023
C         2.40219684600801   -2.52528090304331   -0.45429607038759
C         2.20241472501456   -3.56821162678636    2.02706585628885
H         1.21740981859110   -3.10598458835741    2.07054585106431
H         2.77768424945560   -3.18673165545354    2.87755316108249
H         2.06364709630931   -4.64427305126129    2.17687522892733
O         3.45097373815895   -1.68374964056766   -0.91496552334395
C         1.15824708703891   -1.68390839502540   -0.01668644641474
C         0.61484779888076   -0.69839693518517   -1.01629444925340
H         1.46128754564208   -1.07566015130250    0.84894930576316
H         0.35415735210013   -2.36442513204599    0.28985415650148
S        -1.11403057499915   -0.91323084766531   -1.48283785042037
C        -1.65176971169419    0.80545088052028   -1.20788486036861
H        -1.26147131399966    1.13376615693319   -0.24266903687389
H        -2.74400161713503    0.80916800121998   -1.16933080085138
H        -1.30062939500061    1.46083571939183   -2.00712808523537
O         1.18741623980338    0.30969575244433   -1.35047908388970
C         1.67755834184730   -2.84988567996267   -2.84153190034591
C         2.43378738957636   -1.81981939923554   -3.19097182603388
C         3.48083630208813   -1.25846367407851   -2.27685183203198
H         4.73628185366489   -3.66723365989123   -0.29665651906689
H         2.30037060329091   -1.33696796254184   -4.14895073402374
H         4.47622650831872   -1.51160866735209   -2.68181874243356
H         3.39735056504041   -0.15995163349511   -2.28602260941055
H         1.07960563350975   -4.09109390344064   -1.19285834501891
H         0.91016102831570   -3.23427874815938   -3.49923918999654
H         2.07081394980660   -6.15646400146053   -0.90894725072807
H         3.95827465230541   -4.22107181586678   -2.31132822220174
47
 energy: -63.116329618429 gnorm: 0.016618804958 xtb: 6.4.0 (d4b70c2)
C         5.33207489274379   -6.46396009067572   -0.53092824649340
C         4.93947654971559   -6.28019131236742    0.94833040986121
C         4.89412912374267   -4.83154847550584    1.48336959370709
H         5.66674217248610   -6.81349299615480    1.56401674213537
H         3.97119939740587   -6.75135621859468    1.11792723609355
C         4.17926751554655   -3.87810895338027    0.58065122048929
H         5.92014789444366   -4.47503327793545    1.60895873325128
H         4.43838989951720   -4.86629544910494    2.47207734239360
C         6.34959666185960   -7.59807355800392   -0.67454811575832
H         7.24387136597542   -7.39363429301521   -0.09527234952035
H         6.64159814231471   -7.72202654519111   -1.71299284737410
H         5.92752533182925   -8.53743809786429   -0.33094925017137
C         4.12164073970521   -6.80698814667204   -1.42484752361905
H         5.79817828622099   -5.54595419076266   -0.89671351785673
C         2.99473770596625   -5.82254061936661   -1.35224603526199
H         3.75421729767843   -7.79048577940926   -1.12846880660114
H         4.47569471950484   -6.88623328970451   -2.45578406035957
C         3.04154721942168   -4.58048026553875   -1.80165621975769
C         1.95837838099986   -3.57079494388401   -1.55181666457727
C         2.97969140907627   -3.33241810245474    0.73330219478148
C         2.40850200931867   -2.54569806911983   -0.45876005947425
C         2.19581645087984   -3.56984539702109    1.99808293667925
H         1.22087814648791   -3.10093608811802    2.01731285902103
H         2.76127965800686   -3.18931742220244    2.84666512787394
H         2.05761374314723   -4.63687615953154    2.15357582363095
O         3.45594483256588   -1.71756556049439   -0.91865581154529
C         1.17445356790685   -1.70268514110821   -0.02387583942917
C         0.63579363859166   -0.66526290246232   -0.96606607731955
H         1.49646398638333   -1.11138068623174    0.83783521360644
H         0.36670823929048   -2.37033497336171    0.26796813515851
S        -1.09818536984641   -0.93419079839127   -1.39704585376992
C        -1.64282493604610    0.80109574185455   -1.22299761588830
H        -1.26314465306578    1.16043972091774   -0.27389959093544
H        -2.72643362771786    0.78198894623471   -1.21041144937140
H        -1.27810509115107    1.41750474197690   -2.03520881621337
O         1.18273987743863    0.33111793841588   -1.33014669740754
C         1.67415758330501   -2.84359908608809   -2.82750812574715
C         2.42427830041202   -1.80896791334217   -3.16899671184726
C         3.47300846723816   -1.26112974432064   -2.26594793963811
H         4.74601434529889   -3.62887327818410   -0.30176218660875
H         2.29768250700304   -1.29717687299307   -4.11177200413876
H         4.46720320975683   -1.51802696326385   -2.66231542991892
H         3.39646750831591   -0.16556075243830   -2.25498277144033
H         1.07361474106738   -4.09231847446985   -1.18351681550806
H         0.90327290233066   -3.22926631877977   -3.47565417904870
H         2.09624449776675   -6.16112618386873   -0.85505927163682
H         3.91718075916118   -4.21928369802230   -2.32392668444501
47
 energy: -63.118705635984 gnorm: 0.016240063907 xtb: 6.4.0 (d4b70c2)
C         5.32424180762956   -6.46212231634464   -0.52782915997405
C         4.92445115600617   -6.27861707890123    0.94718097227419
C         4.90948982422375   -4.82682535590908    1.47437332888213
H         5.63448300758031   -6.82555682625188    1.56869711737404
H         3.94234997293748   -6.72355330237439    1.10859976859966
C         4.19794707664597   -3.87361547826420    0.56991274523737
H         5.94092430701234   -4.48643578722260    1.58662385524344
H         4.45068150100239   -4.84362247587023    2.46154054689399
C         6.35241922332891   -7.58681638904916   -0.66828293815771
H         7.24492207286801   -7.37265291833927   -0.08975023922033
H         6.64063444838678   -7.71165992534379   -1.70771608936874
H         5.93252196426978   -8.52569071300684   -0.31881140004322
C         4.12150272540675   -6.81347583390779   -1.42481968820366
H         5.77570200796235   -5.53880176002247   -0.89457487281432
C         2.99588633862055   -5.83100981816484   -1.33112690833756
H         3.76107509850256   -7.80147382789665   -1.13837043310017
H         4.47842240068673   -6.87202856949217   -2.45533426097117
C         3.02465830849576   -4.59641576926414   -1.80491762022747
C         1.95372898622658   -3.57972928404145   -1.54778341904507
C         2.99093491253579   -3.34234022217604    0.72331561270049
C         2.42399834927798   -2.55581600732876   -0.46140778698211
C         2.19100070373632   -3.58504407486986    1.97575910001089
H         1.21840265614014   -3.11239012892188    1.97143266458341
H         2.74461330740922   -3.19882424394527    2.82958790954785
H         2.04891702984855   -4.65098202201489    2.12902621559059
O         3.47700551101915   -1.74186000377307   -0.91938926588057
C         1.19794451696996   -1.71267663766534   -0.02030201419952
C         0.66599982680966   -0.66965435927588   -0.95286012007846
H         1.51448994789566   -1.13948798371731    0.85505159924344
H         0.38304391203252   -2.38171757708582    0.24122612169369
S        -1.08930986724460   -0.94730112836925   -1.31737984755792
C        -1.64104454229042    0.80011717143817   -1.24042741239183
H        -1.27619219830671    1.20855276046853   -0.30311263069766
H        -2.72346884535922    0.77697282152160   -1.25477397178396
H        -1.25210715357700    1.36379308355729   -2.08380331586301
O         1.17170025007414    0.36579580692486   -1.28044033546835
C         1.66761732098112   -2.83911708905751   -2.81769303863334
C         2.41029457171250   -1.79688661476783   -3.15176512290024
C         3.47252102716521   -1.26250347223093   -2.25763417136032
H         4.75942374993584   -3.60923431497922   -0.31209918938933
H         2.27615948882552   -1.26047688673081   -4.08031551326073
H         4.46222624687962   -1.51408657715559   -2.66540936380649
H         3.39718611996416   -0.16750942280088   -2.22534897562634
H         1.06306043712104   -4.08698094538298   -1.17465540985062
H         0.88780401548356   -3.22056711085849   -3.45706610799897
H         2.11481581067835   -6.16160616092377   -0.79330170196724
H         3.88165066648896   -4.23239523021196   -2.35848523271492
47
 energy: -63.120739541810 gnorm: 0.016763908921 xtb: 6.4.0 (d4b70c2)
C         5.31671090981617   -6.46295052981460   -0.52278697189639
C         4.90671194742567   -6.27621296140284    0.94998764409469
C         4.93186294781247   -4.82147655143373    1.47020600492199
H         5.59039784954609   -6.84888360675630    1.58158444889432
H         3.90517308023571   -6.68692469109595    1.09927910921368
C         4.22380312928465   -3.86981891907321    0.56294628686478
H         5.97299305280875   -4.50311632950154    1.56238301413326
H         4.48015162308478   -4.81410347180306    2.46217680376451
C         6.35946381689807   -7.57482805046442   -0.65864720537652
H         7.25117883028516   -7.34541776124103   -0.08080400931287
H         6.64738992400733   -7.70181836504555   -1.69975033403578
H         5.94797627833738   -8.51710787415738   -0.30133872301949
C         4.11813023249787   -6.81641294697146   -1.42610607162905
H         5.75728228217147   -5.53380878327201   -0.88870341454636
C         2.99300731405646   -5.83569663246530   -1.30749394161040
H         3.76497544320760   -7.81298870014563   -1.15481861082949
H         4.47508087270360   -6.85231155196615   -2.45831772235188
C         3.00536031077875   -4.61222998903232   -1.81565227078469
C         1.94830411139745   -3.58389353687081   -1.54740977577742
C         3.00538841738233   -3.35790809350787    0.71621307337532
C         2.44018904255965   -2.56596089950155   -0.46140708732403
C         2.19052885980379   -3.61663933947757    1.95545245075855
H         1.21521428463701   -3.14897566008355    1.93064077783435
H         2.72605365159830   -3.22540188877765    2.82066129328936
H         2.04869339410044   -4.68445475408202    2.10155929477191
O         3.50058543472004   -1.76871022653002   -0.92398307162461
C         1.22499782460724   -1.71621671272122   -0.00786136040836
C         0.68221234945627   -0.65141056224188   -0.90649865652855
H         1.54625672088750   -1.17047055636737    0.88563527564752
H         0.40256510039132   -2.38685085713174    0.23164925146402
S        -1.07174917322093   -0.94667482571406   -1.25504003717744
C        -1.63993918663676    0.79927236652003   -1.27585278748727
H        -1.29800781831392    1.25988072023245   -0.34969995877578
H        -2.72288857028583    0.77222752659581   -1.32177499744961
H        -1.22007085887095    1.30916638788840   -2.14398818678965
O         1.17528290960182    0.38607213240645   -1.23404597905421
C         1.65163190585593   -2.82960078518370   -2.80806886289176
C         2.38456598026268   -1.77785712798131   -3.13448275484279
C         3.46727520593632   -1.25897216922693   -2.25142413195399
H         4.77595404849124   -3.59393114896361   -0.32135592593460
H         2.23751362941716   -1.22058260814918   -4.04878415762915
H         4.44894182464175   -1.50081377227110   -2.68485256543473
H         3.39155090386660   -0.16392781805315   -2.19296815785266
H         1.05153786135936   -4.07779083204019   -1.16529382161995
H         0.86078368207807   -3.20412333516586   -3.43904189528897
H         2.13302012737146   -6.15349642382843   -0.72298163365176
H         3.84068849194624   -4.26017748412935   -2.41379964813840
47
 energy: -63.122641932687 gnorm: 0.015883192408 xtb: 6.4.0 (d4b70c2)
C         5.30831891375568   -6.46279473098872   -0.51442144988527
C         4.88546334552620   -6.27342402744054    0.95692414532955
C         4.95948680001886   -4.81698246588631    1.46835948403851
H         5.53691871564565   -6.87568817999998    1.60017792213344
H         3.86526454659963   -6.64597089503197    1.09353277982263
C         4.25203598411584   -3.86662773432388    0.56018458423195
H         6.01154229275334   -4.52321855995219    1.53540345460227
H         4.52780027834552   -4.78461206048995    2.47048906875316
C         6.36395499269082   -7.56247810595031   -0.64326337196322
H         7.25406674841734   -7.31449899287628   -0.06670831188187
H         6.65574415360691   -7.69208751598544   -1.68466068379003
H         5.96766641296214   -8.51076120289989   -0.27861545213352
C         4.11234771035359   -6.81496116605734   -1.42632006463952
H         5.74436507077172   -5.53020559581372   -0.87917018395020
C         2.98713793617289   -5.83614378257390   -1.28989933876169
H         3.76270677414519   -7.81915601995579   -1.17214652705703
H         4.46773385925192   -6.83098238882821   -2.46008385723760
C         2.98350693276267   -4.62810488044822   -1.83763710993377
C         1.94303290389915   -3.58526833928314   -1.54944766173329
C         3.02250187782981   -3.37522038796617    0.71089754917125
C         2.45545869073498   -2.57393650175223   -0.46101201242132
C         2.19677997007094   -3.66312504887249    1.93677086451387
H         1.21283449368603   -3.21392094425572    1.90182148134423
H         2.71032388987625   -3.27094249762568    2.81692691084614
H         2.06791675182402   -4.73590946008954    2.06892632570939
O         3.52192993324423   -1.79209595407717   -0.93471905991503
C         1.25028873562262   -1.71478145324778    0.00789536749965
C         0.69495090919157   -0.63261234279246   -0.86233427764592
H         1.57296090707648   -1.19514565821770    0.91878212579468
H         0.42421094141464   -2.38870441936771    0.23404794778004
S        -1.05165222869005   -0.93672723472602   -1.20887318621843
C        -1.62921104536601    0.79673728504329   -1.32483016159293
H        -1.31640818531737    1.30372476269405   -0.41183425569845
H        -2.71108998018915    0.76392039899500   -1.39804858679551
H        -1.18777632931055    1.26636625159211   -2.20079966518860
O         1.18071148670766    0.41284868811434   -1.17751789849383
C         1.62872359124877   -2.81624353669024   -2.79695254121341
C         2.35132119765360   -1.75594580421510   -3.11850062800909
C         3.45481235412703   -1.24943811556403   -2.24894819554004
H         4.79740938563063   -3.57785943318342   -0.32411933064462
H         2.18546187033774   -1.18338980837289   -4.01928334108849
H         4.42608557689945   -1.47718730029560   -2.71627339457819
H         3.37561027504065   -0.15551971353935   -2.16423601994309
H         1.04299769989933   -4.07012979074251   -1.15768883956787
H         0.82529559781940   -3.18113978477680   -3.41926994423022
H         2.15334793987162   -6.13541525031324   -0.65617182866197
H         3.79983932126992   -4.29857030096837   -2.47201283115731
47
 energy: -63.124361211700 gnorm: 0.013166206267 xtb: 6.4.0 (d4b70c2)
C         5.29935978290213   -6.46381015073304   -0.50443396841530
C         4.86767893218747   -6.26929137324540    0.96502873412351
C         4.98564283723432   -4.81436021679385    1.46659424230257
H         5.49043378831049   -6.89435421040228    1.61519150580968
H         3.83595302108806   -6.60746653452303    1.09230892520275
C         4.27575939051794   -3.86415186070618    0.55955786641605
H         6.04579547411598   -4.54296605774889    1.50744313210413
H         4.58186673568052   -4.76177334541370    2.48055762776145
C         6.36406847564758   -7.55341187967549   -0.62624237789363
H         7.25046539215086   -7.28935865477295   -0.04969548169673
H         6.66156521188075   -7.68471235091612   -1.66641976201868
H         5.98237694465706   -8.50600543363571   -0.25691896440324
C         4.10590493982446   -6.80865733351352   -1.42538480068296
H         5.73554863699410   -5.52988911523142   -0.86696752519346
C         2.98439809078234   -5.82683139298583   -1.27435529244070
H         3.75521057418480   -7.81688000870705   -1.18699905239067
H         4.46106142329541   -6.80848380489213   -2.45934125966953
C         2.96541670995935   -4.63283092558746   -1.84995194528927
C         1.93274633996012   -3.58343650799195   -1.54988046085286
C         3.03809672234038   -3.39171148171635    0.70456229448275
C         2.46448095807875   -2.57961499788491   -0.46018779786705
C         2.20696828177396   -3.71726127868354    1.91769262773767
H         1.20989851715966   -3.29586572215108    1.88154038756577
H         2.69986944318661   -3.32761536419335    2.81111411308751
H         2.10594901635865   -4.79682421069549    2.03251019026615
O         3.53281955075826   -1.80791467944685   -0.94873913924605
C         1.26940631654689   -1.71348940577437    0.03137384704204
C         0.70210807906726   -0.61825690355800   -0.81674007028603
H         1.60091480513077   -1.21121153016839    0.94868737891147
H         0.44286988428036   -2.38734690815471    0.25907216071757
S        -1.03380286093703   -0.92396929469729   -1.17010807423762
C        -1.60820642413266    0.79361695264901   -1.38176016766670
H        -1.32396540330075    1.34599504515795   -0.48557038077708
H        -2.68841873545984    0.75618387467039   -1.47903846719156
H        -1.14753222007908    1.22490565346745   -2.26506191494312
O         1.19217625615306    0.42810631616774   -1.12250567780681
C         1.60174429111465   -2.80225954274466   -2.78452929417820
C         2.31482753109722   -1.73486882913834   -3.10373406043423
C         3.43320231885136   -1.23537217716098   -2.24761058046187
H         4.82113245127908   -3.56093710275066   -0.31994930990695
H         2.12799230501494   -1.15267774671765   -3.99335505206107
H         4.39465960611844   -1.44522184274069   -2.74532960395394
H         3.34776299698049   -0.14423431933801   -2.14006347551149
H         1.03568799861356   -4.06813679932900   -1.15011093788792
H         0.78902320425842   -3.15829582468256   -3.40044632126933
H         2.17304628376458   -6.11119176061206   -0.61371032240069
H         3.76076612460727   -4.33018896229656   -2.52275349449710
47
 energy: -63.125872736150 gnorm: 0.008818805487 xtb: 6.4.0 (d4b70c2)
C         5.29158359023820   -6.46199317009803   -0.49652236127180
C         4.85517882502636   -6.26277374707486    0.97084088014880
C         5.01047209182397   -4.81171125128645    1.46330901958001
H         5.45432544530818   -6.90543494373428    1.62228214239171
H         3.81558331647422   -6.56913821762577    1.09087006226600
C         4.29832624147852   -3.85513241994380    0.56254558150231
H         6.07491867821922   -4.56027818986387    1.48208983681154
H         4.63295991370492   -4.74599606021654    2.48589375351455
C         6.35877765034712   -7.54792396561554   -0.60984531684661
H         7.24007145861746   -7.27482055125265   -0.03161209043752
H         6.66246641999390   -7.68140029534632   -1.64725982025219
H         5.98555420460748   -8.50114470701476   -0.23849639717579
C         4.10031852455935   -6.79850335695364   -1.42362582816676
H         5.73076953725110   -5.52878365202372   -0.85743146633843
C         2.98129767101970   -5.81430159121116   -1.27206321452106
H         3.74538389075580   -7.80564868147194   -1.19372575228014
H         4.45859513680906   -6.79251452608494   -2.45479230080891
C         2.94416044594178   -4.63225441539295   -1.86851032381861
C         1.91834705278835   -3.58052238357508   -1.54870442940837
C         3.05258567914414   -3.40542974110496    0.69833764509703
C         2.46700220574413   -2.58653334635756   -0.45761224624420
C         2.21936429182703   -3.77607076278820    1.89757928247739
H         1.20665908213087   -3.39007550993413    1.86276178028284
H         2.69127380864731   -3.38931614391516    2.80240138822488
H         2.15743094494700   -4.86173127295182    1.99333104429955
O         3.53146589081907   -1.81834698092238   -0.96194002894459
C         1.28381150117948   -1.71565194534827    0.06133137846915
C         0.70902729320018   -0.61258573251435   -0.77411702874844
H         1.63288664186746   -1.22265325978813    0.97516154278510
H         0.45862907584839   -2.38667924329930    0.30074735904756
S        -1.01864488151033   -0.91478363346206   -1.12970555067626
C        -1.57746753182580    0.78796245082240   -1.44560631691244
H        -1.31618035201518    1.38658360520064   -0.57323703515612
H        -2.65523583744155    0.74957616822240   -1.56620413097151
H        -1.09577206712328    1.17751880753973   -2.33780822351187
O         1.20437876209001    0.43843834276696   -1.06577322353535
C         1.57054651226165   -2.78695850662680   -2.76956472629585
C         2.27652436010371   -1.71476044095219   -3.08830463812639
C         3.40317525970998   -1.21897859561564   -2.24363198653711
H         4.85045685008132   -3.53437348617875   -0.30697594677674
H         2.06984893876719   -1.12639298297449   -3.96902672330359
H         4.35655344694671   -1.40882404525568   -2.76314682568315
H         3.30966786017818   -0.13150568513604   -2.11541546353346
H         1.02793664358574   -4.06880609239360   -1.14077319558447
H         0.75090665708661   -3.13504353666219   -3.38036379756224
H         2.19705497013705   -6.08041604537318   -0.57173545285387
H         3.72175389864692   -4.34821625920960   -2.56061085461552
47
 energy: -63.127029262112 gnorm: 0.009177896216 xtb: 6.4.0 (d4b70c2)
C         5.28601390289331   -6.45791333220699   -0.49036274928258
C         4.84786663434261   -6.25299208206181    0.97512019816153
C         5.03467337810762   -4.80528360162086    1.45920423102341
H         5.42836601657674   -6.90835489466600    1.62628295794847
H         3.80235111231237   -6.53228017526167    1.09009236673278
C         4.31859213910151   -3.84358286042666    0.56344000248416
H         6.10119744022572   -4.56995231556300    1.45786690716347
H         4.67709461509967   -4.72941952269753    2.48717745271077
C         6.34958862854556   -7.54689502518597   -0.59733608777877
H         7.22619870946768   -7.27180972851880   -0.01538169842924
H         6.65861441495144   -7.68274342380603   -1.63195008362212
H         5.97502727123272   -8.49730520870243   -0.22523714401143
C         4.09686390442653   -6.78661275474034   -1.42055672055060
H         5.72964529383684   -5.52657168495665   -0.85078727292349
C         2.98502582834388   -5.79500141708954   -1.25891525501402
H         3.73527988168993   -7.79203596940606   -1.19709071649381
H         4.45820023216468   -6.77417761767619   -2.45047144746281
C         2.92583470339916   -4.62204256485769   -1.87090855408895
C         1.89850526384360   -3.57581803701338   -1.53984417194173
C         3.06302183780401   -3.42171012689998    0.68919072526790
C         2.46413611154068   -2.59175027184761   -0.45135211821149
C         2.23121501224519   -3.83758401629656    1.87480373396722
H         1.20452529380935   -3.48809775973796    1.83855243169916
H         2.68200240746881   -3.45088150717894    2.78908196980946
H         2.20965883058103   -4.92591457663573    1.95391573406689
O         3.52407653789988   -1.82520916870787   -0.96951756597871
C         1.29462484616378   -1.71748672588866    0.09608882634342
C         0.71689975377326   -0.61006614312816   -0.73422543869528
H         1.66963481990129   -1.22931058262569    1.00091000567783
H         0.46987322934152   -2.38236000616418    0.35211609613513
S        -1.00094805440007   -0.90753594881451   -1.10204675675487
C        -1.53884830117466    0.77668017919676   -1.51149423760222
H        -1.29352783607637    1.41619822502832   -0.66718775412096
H        -2.61377229910985    0.73806696689256   -1.65693270746596
H        -1.03548331534419    1.12484606972808   -2.40880240117508
O         1.22120719579968    0.44082895893704   -1.01649770787491
C         1.53722378183704   -2.77393668487873   -2.75000225265310
C         2.23638672021847   -1.69674088133709   -3.06929996015032
C         3.36893282674115   -1.20312701456182   -2.23467869495878
H         4.88081640013974   -3.50166122951647   -0.29264280908524
H         2.01332978310435   -1.10486944239928   -3.94379540590713
H         4.31592226350947   -1.37181270902801   -2.77012022528387
H         3.26537672651667   -0.11925898034547   -2.08659473495160
H         1.01625542026695   -4.06982213598901   -1.12363168647629
H         0.71306567844936   -3.11740677306821   -3.35645540470369
H         2.21823383869252   -6.05215393925916   -0.54712851991327
H         3.67595111973767   -4.35146155901433   -2.60725535563050
47
 energy: -63.127884816302 gnorm: 0.010280156352 xtb: 6.4.0 (d4b70c2)
C         5.28092086314447   -6.45203977806839   -0.48881076188350
C         4.84488702894260   -6.24018767943801    0.97583483448926
C         5.05773713857866   -4.79537245952388    1.45612797772631
H         5.41053842971952   -6.90771779740859    1.62668521339085
H         3.79425295272999   -6.49756980875673    1.08808086312690
C         4.33970257461721   -3.82683985723616    0.56645372754846
H         6.12661698445977   -4.57526636300292    1.43750606088374
H         4.71425471955211   -4.71070423102813    2.48769144143964
C         6.33901128452597   -7.54781488800123   -0.58931149539489
H         7.21322876406572   -7.27710935352850   -0.00291109712821
H         6.65206248954859   -7.68733659822400   -1.62150227542741
H         5.95562400336638   -8.49404474052055   -0.21735192846999
C         4.09295860792724   -6.77331128947286   -1.42119693084770
H         5.72936078793340   -5.52363849907916   -0.85006767959265