      -----------------------------------------------------------      
     |                   =====================                   |     
     |                           x T B                           |     
     |                   =====================                   |     
     |                         S. Grimme                         |     
     |          Mulliken Center for Theoretical Chemistry        |     
     |                    University of Bonn                     |     
      -----------------------------------------------------------      

   * xtb version 6.4.0 (d4b70c2) compiled by 'ehlert@majestix' on 2021-02-01

   xtb is free software: you can redistribute it and/or modify it under
   the terms of the GNU Lesser General Public License as published by
   the Free Software Foundation, either version 3 of the License, or
   (at your option) any later version.
   
   xtb is distributed in the hope that it will be useful,
   but WITHOUT ANY WARRANTY; without even the implied warranty of
   MERCHANTABILITY or FITNESS FOR A PARTICULAR PURPOSE.  See the
   GNU Lesser General Public License for more details.
   
   Cite this work as:
   * C. Bannwarth, E. Caldeweyher, S. Ehlert, A. Hansen, P. Pracht,
     J. Seibert, S. Spicher, S. Grimme, WIREs Comput. Mol. Sci., 2020,
     e01493. DOI: 10.1002/wcms.1493
   
   for GFN2-xTB:
   * C. Bannwarth, S. Ehlert and S. Grimme., J. Chem. Theory Comput., 2019,
     15, 1652-1671. DOI: 10.1021/acs.jctc.8b01176
   for GFN1-xTB:
   * S. Grimme, C. Bannwarth, P. Shushkov, J. Chem. Theory Comput., 2017,
     13, 1989-2009. DOI: 10.1021/acs.jctc.7b00118
   for GFN0-xTB:
   * P. Pracht, E. Caldeweyher, S. Ehlert, S. Grimme, ChemRxiv, 2019, preprint.
     DOI: 10.26434/chemrxiv.8326202.v1
   for GFN-FF:
   * S. Spicher and S. Grimme, Angew. Chem. Int. Ed., 2020, 59, 15665-15673.
     DOI: 10.1002/anie.202004239
   
   for DFT-D4:
   * E. Caldeweyher, C. Bannwarth and S. Grimme, J. Chem. Phys., 2017,
     147, 034112. DOI: 10.1063/1.4993215
   * E. Caldeweyher, S. Ehlert, A. Hansen, H. Neugebauer, S. Spicher,
     C. Bannwarth and S. Grimme, J. Chem. Phys., 2019, 150, 154122.
     DOI: 10.1063/1.5090222
   * E. Caldeweyher, J.-M. Mewes, S. Ehlert and S. Grimme, Phys. Chem. Chem. Phys.
     2020, 22, 8499-8512. DOI: 10.1039/D0CP00502A
   
   for sTDA-xTB:
   * S. Grimme and C. Bannwarth, J. Chem. Phys., 2016, 145, 054103.
     DOI: 10.1063/1.4959605
   
   in the mass-spec context:
   * V. Asgeirsson, C. Bauer and S. Grimme, Chem. Sci., 2017, 8, 4879.
     DOI: 10.1039/c7sc00601b
   * J. Koopman and S. Grimme, ACS Omega 2019, 4, 12, 15120-15133.
     DOI: 10.1021/acsomega.9b02011
   
   for metadynamics refer to:
   * S. Grimme, J. Chem. Theory Comput., 2019, 155, 2847-2862
     DOI: 10.1021/acs.jctc.9b00143
   
   with help from (in alphabetical order)
   P. Atkinson, C. Bannwarth, F. Bohle, G. Brandenburg, E. Caldeweyher
   M. Checinski, S. Dohm, S. Ehlert, S. Ehrlich, I. Gerasimov, J. Koopman
   C. Lavinge, S. Lehtola, F. März, M. Müller, F. Musil, H. Neugebauer
   J. Pisarek, P. Pracht, J. Seibert, P. Shushkov, S. Spicher, M. Stahn
   T. Strunk, J. Stückrath, T. Rose, and J. Unsleber
   
 * started run on 2021/06/02 at 13:06:39.770     

           -------------------------------------------------
          |                Calculation Setup                |
           -------------------------------------------------

          program call               : xtb -c 0 -u 0 -a 1.0 --iterations 100 --opt normal --namespace YNGRJNAPTZJALI-FMCLSXCISA-N /home/zhao922/bin/Github/YARP/version2.0/CONF_GEN/SAAA/opt-folder/YNGRJNAPTZJALI-FMCLSXCISA-N.xyz
          hostname                   : bell-a001
          calculation namespace      : YNGRJNAPTZJALI-FMCLSXCISA-N
          coordinate file            : /home/zhao922/bin/Github/YARP/version2.0/CONF_GEN/SAAA/opt-folder/YNGRJNAPTZJALI-FMCLSXCISA-N.xyz
          omp threads                :                     4
          number of atoms            :                    56
          number of electrons        :                   164
          charge                     :                     0
          spin                       :                   0.0
          first test random number   :      0.88874391957337

   ID    Z sym.   atoms
    1    6 C      1-3, 8-10, 13-15, 20-22, 44-49, 54
    2    8 O      4-6, 16, 18, 19, 55
    3    7 N      7, 11, 12, 17
    4    1 H      23-43, 50-53, 56

           -------------------------------------------------
          |                 G F N 2 - x T B                 |
           -------------------------------------------------

        Reference                      10.1021/acs.jctc.8b01176
      * Hamiltonian:
        H0-scaling (s, p, d)           1.850000    2.230000    2.230000
        zeta-weighting                 0.500000
      * Dispersion:
        s8                             2.700000
        a1                             0.520000
        a2                             5.000000
        s9                             5.000000
      * Repulsion:
        kExp                           1.500000    1.000000
        rExp                           1.000000
      * Coulomb:
        alpha                          2.000000
        third order                    shell-resolved
        anisotropic                    true
        a3                             3.000000
        a5                             4.000000
        cn-shift                       1.200000
        cn-exp                         4.000000
        max-rad                        5.000000

q/qsh data taken from xtbrestart
CAMM data taken from xtbrestart

          ...................................................
          :                      SETUP                      :
          :.................................................:
          :  # basis functions                 146          :
          :  # atomic orbitals                 146          :
          :  # shells                           86          :
          :  # electrons                       164          :
          :  max. iterations                   100          :
          :  Hamiltonian                  GFN2-xTB          :
          :  restarted?                       true          :
          :  GBSA solvation                  false          :
          :  PC potential                    false          :
          :  electronic temp.          300.0000000     K    :
          :  accuracy                    1.0000000          :
          :  -> integral cutoff          0.2500000E+02      :
          :  -> integral neglect         0.1000000E-07      :
          :  -> SCF convergence          0.1000000E-05 Eh   :
          :  -> wf. convergence          0.1000000E-03 e    :
          :  Broyden damping             0.4000000          :
          ...................................................

 iter      E             dE          RMSdq      gap      omega  full diag
   1    -95.2627054 -0.952627E+02  0.243E-07    1.88       0.0  T
   2    -95.2627054 -0.170530E-12  0.146E-07    1.88   91392.6  T
   3    -95.2627054  0.383693E-12  0.915E-08    1.88  100000.0  T

   *** convergence criteria satisfied after 3 iterations ***

         #    Occupation            Energy/Eh            Energy/eV
      -------------------------------------------------------------
         1        2.0000           -0.7558114             -20.5667
       ...           ...                  ...                  ...
        76        2.0000           -0.4172998             -11.3553
        77        2.0000           -0.4070281             -11.0758
        78        2.0000           -0.4033205             -10.9749
        79        2.0000           -0.4023167             -10.9476
        80        2.0000           -0.3978738             -10.8267
        81        2.0000           -0.3929906             -10.6938
        82        2.0000           -0.3639578              -9.9038 (HOMO)
        83                         -0.2948847              -8.0242 (LUMO)
        84                         -0.2552011              -6.9444
        85                         -0.2358053              -6.4166
        86                         -0.2315560              -6.3010
        87                         -0.2160474              -5.8790
       ...                                ...                  ...
       146                          0.6791493              18.4806
      -------------------------------------------------------------
                  HL-Gap            0.0690731 Eh            1.8796 eV
             Fermi-level           -0.3294212 Eh           -8.9640 eV

 SCC (total)                   0 d,  0 h,  0 min,  0.070 sec
 SCC setup                      ...        0 min,  0.000 sec (  0.596%)
 Dispersion                     ...        0 min,  0.001 sec (  0.911%)
 classical contributions        ...        0 min,  0.000 sec (  0.144%)
 integral evaluation            ...        0 min,  0.013 sec ( 17.943%)
 iterations                     ...        0 min,  0.024 sec ( 34.860%)
 molecular gradient             ...        0 min,  0.032 sec ( 44.889%)
 printout                       ...        0 min,  0.000 sec (  0.605%)

         :::::::::::::::::::::::::::::::::::::::::::::::::::::
         ::                     SUMMARY                     ::
         :::::::::::::::::::::::::::::::::::::::::::::::::::::
         :: total energy             -94.155887005880 Eh    ::
         :: gradient norm              0.000156861749 Eh/a0 ::
         :: HOMO-LUMO gap              1.879573983224 eV    ::
         ::.................................................::
         :: SCC energy               -95.262705444053 Eh    ::
         :: -> isotropic ES            0.219222943220 Eh    ::
         :: -> anisotropic ES         -0.011393384428 Eh    ::
         :: -> anisotropic XC          0.024508179167 Eh    ::
         :: -> dispersion             -0.069822664228 Eh    ::
         :: repulsion energy           1.103318158138 Eh    ::
         :: add. restraining           0.000000000000 Eh    ::
         :: total charge               0.000000000000 e     ::
         :::::::::::::::::::::::::::::::::::::::::::::::::::::

      ----------------------------------------------------------- 
     |                   =====================                   |
     |                        A N C O P T                        |
     |                   =====================                   |
     |               Approximate Normal Coordinate               |
     |                Rational Function Optimizer                |
      ----------------------------------------------------------- 

          ...................................................
          :                      SETUP                      :
          :.................................................:
          :   optimization level            normal          :
          :   max. optcycles                   200          :
          :   ANC micro-cycles                  20          :
          :   degrees of freedom               162          :
          :.................................................:
          :   RF solver                   davidson          :
          :   write xtbopt.log                true          :
          :   linear?                        false          :
          :   energy convergence         0.5000000E-05 Eh   :
          :   grad. convergence          0.1000000E-02 Eh/α :
          :   maximium RF displ.         1.0000000          :
          :   Hlow (freq-cutoff)         0.1000000E-01      :
          :   Hmax (freq-cutoff)         5.0000000          :
          :   S6 in model hess.         20.0000000          :
          ...................................................

generating ANC from model Hessian ...
Using Lindh-Hessian (1995)
 Shifting diagonal of input Hessian by   9.749013505696435E-003
 Lowest  eigenvalues of input Hessian
    0.000000    0.000000    0.000000    0.000000    0.000000    0.000000
    0.010000    0.010226    0.010323    0.010792    0.010997    0.011366
    0.012118    0.012208    0.012627    0.012919    0.014027    0.015113
 Highest eigenvalues
    2.109149    2.241011    2.299979    2.306588    2.341855    2.393888
 

........................................................................
.............................. CYCLE    1 ..............................
........................................................................
   1    -95.2627054 -0.952627E+02  0.333E-08    1.88       0.0  T
   2    -95.2627054  0.270006E-12  0.223E-08    1.88  100000.0  T
   3    -95.2627054 -0.156319E-12  0.126E-08    1.88  100000.0  T
     SCC iter.                  ...        0 min,  0.021 sec
     gradient                   ...        0 min,  0.036 sec
 * total energy  :   -94.1558870 Eh     change       -0.1989520E-12 Eh
   gradient norm :     0.0001569 Eh/α   predicted     0.0000000E+00 (-100.00%)
   displ. norm   :     0.0036485 α      lambda       -0.4051413E-07
   maximum displ.:     0.0019821 α      in ANC's #1, #2, #50, ...

   *** GEOMETRY OPTIMIZATION CONVERGED AFTER 1 ITERATIONS ***

------------------------------------------------------------------------
 total energy gain   :        -0.0000000 Eh       -0.0000 kcal/mol
 total RMSD          :         0.0000000 a0        0.0000 Å
 total power (kW/mol):        -0.0000000 (step)   -0.0000 (real)
------------------------------------------------------------------------

 ANCopt (total)                0 d,  0 h,  0 min,  0.129 sec
 optimizer setup                ...        0 min,  0.000 sec (  0.203%)
 model hessian                  ...        0 min,  0.040 sec ( 30.987%)
 ANC generation                 ...        0 min,  0.007 sec (  5.564%)
 coordinate transformation      ...        0 min,  0.000 sec (  0.019%)
 single point calculation       ...        0 min,  0.081 sec ( 62.647%)
 optimization log               ...        0 min,  0.000 sec (  0.378%)
 hessian update                 ...        0 min,  0.000 sec (  0.002%)
 rational function              ...        0 min,  0.000 sec (  0.096%)

================
 final structure:
================
56
 xtb: 6.4.0 (d4b70c2)
C         0.96554717000000   -2.74177404000000    0.17727162000000
C         1.16832473000000   -4.23932533000000   -0.00732709000000
C        -0.46061281000000   -2.35403843000000   -0.23247501000000
O        -0.76651547000000   -2.21196531000000   -1.41317611000000
O         0.78974222000000   -0.08232140000000   -0.23277365000000
O         1.13933489000000   -1.67997875000000   -3.47719252000000
N         1.87833775000000   -1.99667252000000   -0.67016258000000
C         1.62665881000000   -0.68879064000000   -0.88332230000000
C         2.37922722000000   -0.08253095000000   -2.04904988000000
C         1.46157352000000   -0.33046622000000   -3.28822830000000
N         2.66627242000000    1.31187143000000   -1.80260606000000
N        -1.33469471000000   -2.24546140000000    0.76859922000000
C        -2.73149368000000   -1.90189817000000    0.56162553000000
C        -3.56891234000000   -2.45022378000000    1.70579585000000
C        -2.90516108000000   -0.36998391000000    0.44567555000000
O        -3.52031219000000    0.28546419000000    1.25867307000000
N        -2.33310336000000    0.14155747000000   -0.65984390000000
O        -0.12435088000000    2.47852209000000   -1.42526254000000
O        -0.74487029000000    2.09218531000000    0.71258859000000
C        -2.31928167000000    1.56416543000000   -0.93812611000000
C        -0.92534579000000    2.10978062000000   -0.61017735000000
C        -2.68748764000000    1.83544722000000   -2.38973753000000
H         1.13595318000000   -2.44910078000000    1.21971923000000
H         0.95804689000000   -4.51991736000000   -1.03782475000000
H         0.49839099000000   -4.78977759000000    0.64786629000000
H         2.19326218000000   -4.50971496000000    0.23480977000000
H         0.44076954000000   -1.93833373000000   -2.84620459000000
H         2.40667669000000   -2.50954705000000   -1.36001871000000
H         3.32503997000000   -0.61673321000000   -2.19997118000000
H         1.99583327000000   -0.00862597000000   -4.18793456000000
H         0.56381567000000    0.29166647000000   -3.17294626000000
H         1.81710516000000    1.78003880000000   -1.49465940000000
H         2.96744853000000    1.76219508000000   -2.66061170000000
H        -0.99018960000000   -2.21185341000000    1.71986703000000
H        -3.03182981000000   -2.34691827000000   -0.39498054000000
H        -4.61736502000000   -2.22765622000000    1.53113047000000
H        -3.27527027000000   -1.97537407000000    2.63888435000000
H        -3.44003035000000   -3.52618875000000    1.79034292000000
H        -1.76995087000000   -0.46097823000000   -1.24883764000000
H        -3.03797923000000    2.01625061000000   -0.24373634000000
H        -2.70025140000000    2.90535559000000   -2.57711561000000
H        -3.66832728000000    1.42247481000000   -2.60820543000000
H        -1.95399455000000    1.38066161000000   -3.05122924000000
C         0.51722359000000    2.23847332000000    1.26055916000000
C         0.94182574000000    1.24207740000000    2.15356321000000
C         1.35182380000000    3.29404991000000    0.93955873000000
C         2.21983146000000    1.32383645000000    2.69986160000000
C         3.04958206000000    2.38213520000000    2.38473633000000
C         2.61435278000000    3.36264491000000    1.50796419000000
H         1.02288834000000    4.04841454000000    0.24236527000000
H         4.03869646000000    2.44036060000000    2.81264321000000
H         3.26398492000000    4.18573378000000    1.25238262000000
H         2.53920017000000    0.54118576000000    3.37183802000000
C         0.06254598000000    0.10514941000000    2.41603172000000
O         0.40688003000000   -0.97371239000000    2.84721420000000
H        -0.99395228000000    0.30077798000000    2.17213985000000
 
 Bond Distances (Angstroems)
 ---------------------------
C1-C2=1.5225         C1-C3=1.5337         C1-N7=1.4514         C1-H23=1.0961        C2-C1=1.5225         C2-H24=1.0885        
C2-H25=1.0868        C2-H26=1.0873        C3-C1=1.5337         C3-O4=1.2279         C3-N12=1.3334        O4-C3=1.2279         
O5-C8=1.2212         O6-C10=1.4003        O6-H27=0.9762        N7-C1=1.4514         N7-C8=1.3488         N7-H28=1.0090        
C8-O5=1.2212         C8-N7=1.3488         C8-C9=1.5142         C9-C8=1.5142         C9-C10=1.5618        C9-N11=1.4448        
C9-H29=1.0967        C10-O6=1.4003        C10-C9=1.5618        C10-H30=1.0948       C10-H31=1.0983       N11-C9=1.4448        
N11-H32=1.0174       N11-H33=1.0147       N12-C3=1.3334        N12-C13=1.4532       N12-H34=1.0123       C13-N12=1.4532       
C13-C14=1.5202       C13-C15=1.5461       C13-H35=1.0970       C14-C13=1.5202       C14-H36=1.0860       C14-H37=1.0874       
C14-H38=1.0869       C15-C13=1.5461       C15-O16=1.2120       C15-N17=1.3458       O16-C15=1.2120       N17-C15=1.3458       
N17-C20=1.4496       N17-H39=1.0135       O18-C21=1.2008       O19-C21=1.3351       O19-C44=1.3837       C20-N17=1.4496       
C20-C21=1.5324       C20-C22=1.5220       C20-H40=1.0969       C21-O18=1.2008       C21-O19=1.3351       C21-C20=1.5324       
C22-C20=1.5220       C22-H41=1.0863       C22-H42=1.0864       C22-H43=1.0874       H23-C1=1.0961        H24-C2=1.0885        
H25-C2=1.0868        H26-C2=1.0873        H27-O6=0.9762        H28-N7=1.0090        H29-C9=1.0967        H30-C10=1.0948       
H31-C10=1.0983       H32-N11=1.0174       H33-N11=1.0147       H34-N12=1.0123       H35-C13=1.0970       H36-C14=1.0860       
H37-C14=1.0874       H38-C14=1.0869       H39-N17=1.0135       H40-C20=1.0969       H41-C22=1.0863       H42-C22=1.0864       
H43-C22=1.0874       C44-O19=1.3837       C44-C45=1.4038       C44-C46=1.3834       C45-C44=1.4038       C45-C47=1.3923       
C45-C54=1.4610       C46-C44=1.3834       C46-C49=1.3863       C46-H50=1.0786       C47-C45=1.3923       C47-C48=1.3812       
C47-H53=1.0799       C48-C47=1.3812       C48-C49=1.3855       C48-H51=1.0793       C49-C46=1.3863       C49-C48=1.3855       
C49-H52=1.0793       H50-C46=1.0786       H51-C48=1.0793       H52-C49=1.0793       H53-C47=1.0799       C54-C45=1.4610       
C54-O55=1.2118       C54-H56=1.1018       O55-C54=1.2118       H56-C54=1.1018       
 C  H  Rav=1.0891 sigma=0.0069  Rmin=1.0786  Rmax=1.1018    20
 C  C  Rav=1.4697 sigma=0.0693  Rmin=1.3812  Rmax=1.5618    15
 N  H  Rav=1.0134 sigma=0.0028  Rmin=1.0090  Rmax=1.0174     5
 N  C  Rav=1.4039 sigma=0.0532  Rmin=1.3334  Rmax=1.4532     7
 O  H  Rav=0.9762 sigma=0.0000  Rmin=0.9762  Rmax=0.9762     1
 O  C  Rav=1.2741 sigma=0.0788  Rmin=1.2008  Rmax=1.4003     8
 
 selected bond angles (degree)
 --------------------
C3-C1-C2=109.89                N7-C1-C2=110.51                N7-C1-C3=107.40                H23-C1-C2=110.93               
H23-C1-C3=109.34               H23-C1-N7=108.69               H24-C2-C1=110.04               H25-C2-C1=110.06               
H25-C2-H24=108.73              H26-C2-C1=110.07               H26-C2-H24=109.20              H26-C2-H25=108.72              
O4-C3-C1=121.18                N12-C3-C1=115.44               N12-C3-O4=123.31               H27-O6-C10=109.42              
C8-N7-C1=118.21                H28-N7-C1=117.88               H28-N7-C8=118.85               N7-C8-O5=121.68                
C9-C8-O5=123.49                C9-C8-N7=114.65                C10-C9-C8=104.79               N11-C9-C8=110.72               
N11-C9-C10=113.91              H29-C9-C8=109.85               H29-C9-C10=108.68              H29-C9-N11=108.80              
C9-C10-O6=113.28               H30-C10-O6=106.54              H30-C10-C9=108.58              H31-C10-O6=111.84              
H31-C10-C9=107.88              H31-C10-H30=108.58             
 
 selected dihedral angles (degree)
 ---------------------------------
H24-C2-C1-C3= 56.79           H24-C2-C1-N7=298.44           H24-C2-C1-H23=177.81          H25-C2-C1-C3=296.98           
H25-C2-C1-N7=178.63           H25-C2-C1-H23= 58.01          H26-C2-C1-C3=177.17           H26-C2-C1-N7= 58.82           
H26-C2-C1-H23=298.20          O4-C3-C1-C2=280.44            O4-C3-C1-N7= 40.69            O4-C3-C1-H23=158.46           
N12-C3-C1-C2= 97.60           N12-C3-C1-N7=217.86           N12-C3-C1-H23=335.62          C8-N7-C1-C2=164.12            
C8-N7-C1-C3= 44.26            C8-N7-C1-H23=286.07           H28-N7-C1-C2=  9.54           H28-N7-C1-C3=249.68           
H28-N7-C1-H23=131.49          O5-C8-N7-C1= 11.30            O5-C8-N7-H28=165.63           C9-C8-N7-C1=195.85            
C9-C8-N7-H28=350.18           C10-C9-C8-O5=272.99           C10-C9-C8-N7= 88.34           N11-C9-C8-O5= 36.22           
N11-C9-C8-N7=211.58           H29-C9-C8-O5=156.41           H29-C9-C8-N7=331.77           C9-C10-O6-H27= 77.88          
H30-C10-O6-H27=197.21         H31-C10-O6-H27=315.70         O6-C10-C9-C8=304.05           O6-C10-C9-N11=182.89          
O6-C10-C9-H29= 61.43          H30-C10-C9-C8=185.90          H30-C10-C9-N11= 64.75         H30-C10-C9-H29=303.29         
H31-C10-C9-C8= 68.41          H31-C10-C9-N11=307.25         H31-C10-C9-H29=185.79         
           -------------------------------------------------
          |                Final Singlepoint                |
           -------------------------------------------------

          ...................................................
          :                      SETUP                      :
          :.................................................:
          :  # basis functions                 146          :
          :  # atomic orbitals                 146          :
          :  # shells                           86          :
          :  # electrons                       164          :
          :  max. iterations                   100          :
          :  Hamiltonian                  GFN2-xTB          :
          :  restarted?                      false          :
          :  GBSA solvation                  false          :
          :  PC potential                    false          :
          :  electronic temp.          300.0000000     K    :
          :  accuracy                    1.0000000          :
          :  -> integral cutoff          0.2500000E+02      :
          :  -> integral neglect         0.1000000E-07      :
          :  -> SCF convergence          0.1000000E-05 Eh   :
          :  -> wf. convergence          0.1000000E-03 e    :
          :  Broyden damping             0.4000000          :
          ...................................................

 iter      E             dE          RMSdq      gap      omega  full diag
   1    -95.2627054 -0.952627E+02  0.360E-09    1.88       0.0  T
   2    -95.2627054  0.142109E-13  0.209E-09    1.88  100000.0  T
   3    -95.2627054 -0.156319E-12  0.127E-09    1.88  100000.0  T

   *** convergence criteria satisfied after 3 iterations ***

         #    Occupation            Energy/Eh            Energy/eV
      -------------------------------------------------------------
         1        2.0000           -0.7558114             -20.5667
       ...           ...                  ...                  ...
        76        2.0000           -0.4172998             -11.3553
        77        2.0000           -0.4070281             -11.0758
        78        2.0000           -0.4033205             -10.9749
        79        2.0000           -0.4023167             -10.9476
        80        2.0000           -0.3978738             -10.8267
        81        2.0000           -0.3929906             -10.6938
        82        2.0000           -0.3639578              -9.9038 (HOMO)
        83                         -0.2948847              -8.0242 (LUMO)
        84                         -0.2552011              -6.9444
        85                         -0.2358053              -6.4166
        86                         -0.2315560              -6.3010
        87                         -0.2160474              -5.8790
       ...                                ...                  ...
       146                          0.6791493              18.4806
      -------------------------------------------------------------
                  HL-Gap            0.0690731 Eh            1.8796 eV
             Fermi-level           -0.3294212 Eh           -8.9640 eV

 SCC (total)                   0 d,  0 h,  0 min,  0.080 sec
 SCC setup                      ...        0 min,  0.000 sec (  0.510%)
 Dispersion                     ...        0 min,  0.000 sec (  0.611%)
 classical contributions        ...        0 min,  0.000 sec (  0.176%)
 integral evaluation            ...        0 min,  0.020 sec ( 25.238%)
 iterations                     ...        0 min,  0.023 sec ( 28.495%)
 molecular gradient             ...        0 min,  0.036 sec ( 44.524%)
 printout                       ...        0 min,  0.000 sec (  0.412%)

         :::::::::::::::::::::::::::::::::::::::::::::::::::::
         ::                     SUMMARY                     ::
         :::::::::::::::::::::::::::::::::::::::::::::::::::::
         :: total energy             -94.155887005880 Eh    ::
         :: gradient norm              0.000156861238 Eh/a0 ::
         :: HOMO-LUMO gap              1.879573977110 eV    ::
         ::.................................................::
         :: SCC energy               -95.262705444054 Eh    ::
         :: -> isotropic ES            0.219222942564 Eh    ::
         :: -> anisotropic ES         -0.011393384688 Eh    ::
         :: -> anisotropic XC          0.024508179145 Eh    ::
         :: -> dispersion             -0.069822664237 Eh    ::
         :: repulsion energy           1.103318158138 Eh    ::
         :: add. restraining           0.000000000000 Eh    ::
         :: total charge              -0.000000000000 e     ::
         :::::::::::::::::::::::::::::::::::::::::::::::::::::

           -------------------------------------------------
          |                Property Printout                |
           -------------------------------------------------

    * Orbital Energies and Occupations

         #    Occupation            Energy/Eh            Energy/eV
      -------------------------------------------------------------
         1        2.0000           -0.7558114             -20.5667
       ...           ...                  ...                  ...
        70        2.0000           -0.4469740             -12.1628
        71        2.0000           -0.4396703             -11.9640
        72        2.0000           -0.4381608             -11.9230
        73        2.0000           -0.4321125             -11.7584
        74        2.0000           -0.4257723             -11.5859
        75        2.0000           -0.4212815             -11.4637
        76        2.0000           -0.4172998             -11.3553
        77        2.0000           -0.4070281             -11.0758
        78        2.0000           -0.4033205             -10.9749
        79        2.0000           -0.4023167             -10.9476
        80        2.0000           -0.3978738             -10.8267
        81        2.0000           -0.3929906             -10.6938
        82        2.0000           -0.3639578              -9.9038 (HOMO)
        83                         -0.2948847              -8.0242 (LUMO)
        84                         -0.2552011              -6.9444
        85                         -0.2358053              -6.4166
        86                         -0.2315560              -6.3010
        87                         -0.2160474              -5.8790
        88                         -0.2127620              -5.7895
        89                         -0.2089506              -5.6858
        90                         -0.1043633              -2.8399
        91                         -0.0134505              -0.3660
        92                         -0.0005930              -0.0161
        93                          0.0058913               0.1603
       ...                                ...                  ...
       146                          0.6791493              18.4806
      -------------------------------------------------------------
                  HL-Gap            0.0690731 Eh            1.8796 eV
             Fermi-level           -0.3294212 Eh           -8.9640 eV

     #   Z          covCN         q      C6AA      α(0)
     1   6 C        3.801     0.028    20.102     6.383
     2   6 C        3.757    -0.117    22.785     6.806
     3   6 C        2.758     0.279    22.280     7.730
     4   8 O        0.858    -0.478    23.308     6.473
     5   8 O        0.859    -0.472    23.178     6.455
     6   8 O        1.654    -0.462    22.089     6.345
     7   7 N        2.694    -0.182    24.946     7.418
     8   6 C        2.771     0.281    22.239     7.723
     9   6 C        3.784     0.020    20.261     6.412
    10   6 C        3.680     0.080    19.457     6.318
    11   7 N        2.632    -0.352    29.081     8.009
    12   7 N        2.690    -0.173    24.740     7.387
    13   6 C        3.793     0.023    20.196     6.400
    14   6 C        3.757    -0.115    22.764     6.803
    15   6 C        2.752     0.269    22.451     7.759
    16   8 O        0.858    -0.423    22.140     6.309
    17   7 N        2.692    -0.177    24.826     7.400
    18   8 O        0.856    -0.392    21.519     6.219
    19   8 O        1.709    -0.231    17.831     5.701
    20   6 C        3.791     0.024    20.179     6.397
    21   6 C        2.717     0.365    20.807     7.467
    22   6 C        3.756    -0.118    22.807     6.809
    23   1 H        0.924     0.072     2.062     2.246
    24   1 H        0.925     0.061     2.186     2.312
    25   1 H        0.925     0.056     2.245     2.343
    26   1 H        0.925     0.059     2.210     2.325
    27   1 H        0.803     0.318     0.670     1.286
    28   1 H        0.860     0.194     1.139     1.672
    29   1 H        0.924     0.040     2.450     2.448
    30   1 H        0.924     0.043     2.406     2.426
    31   1 H        0.923     0.024     2.678     2.559
    32   1 H        0.860     0.177     1.230     1.737
    33   1 H        0.860     0.145     1.438     1.878
    34   1 H        0.860     0.208     1.065     1.616
    35   1 H        0.924     0.069     2.094     2.263
    36   1 H        0.925     0.066     2.130     2.282
    37   1 H        0.925     0.066     2.135     2.285
    38   1 H        0.925     0.049     2.328     2.386
    39   1 H        0.860     0.206     1.077     1.626
    40   1 H        0.924     0.093     1.847     2.125
    41   1 H        0.925     0.061     2.192     2.315
    42   1 H        0.925     0.059     2.208     2.324
    43   1 H        0.925     0.062     2.179     2.308
    44   6 C        2.877     0.161    24.526     8.119
    45   6 C        2.969    -0.009    28.242     8.717
    46   6 C        2.914    -0.039    28.968     8.826
    47   6 C        2.923    -0.014    28.359     8.733
    48   6 C        2.916    -0.029    28.716     8.787
    49   6 C        2.923    -0.016    28.417     8.742
    50   1 H        0.926     0.068     2.108     2.270
    51   1 H        0.926     0.054     2.273     2.358
    52   1 H        0.926     0.058     2.227     2.334
    53   1 H        0.926     0.068     2.103     2.268
    54   6 C        2.768     0.223    23.295     7.904
    55   8 O        0.856    -0.367    21.038     6.150
    56   1 H        0.923     0.037     2.487     2.466

 Mol. C6AA /au·bohr⁶  :      32535.681091
 Mol. C8AA /au·bohr⁸  :     738267.860941
 Mol. α(0) /au        :        273.158602


Wiberg/Mayer (AO) data.
largest (>0.10) Wiberg bond orders for each atom

 ---------------------------------------------------------------------------
     #   Z sym  total        # sym  WBO       # sym  WBO       # sym  WBO
 ---------------------------------------------------------------------------
     1   6 C    3.969 --     2 C    0.997     7 N    0.980    23 H    0.949
                             3 C    0.934
     2   6 C    3.989 --     1 C    0.997    24 H    0.983    25 H    0.983
                            26 H    0.981
     3   6 C    3.949 --     4 O    1.599    12 N    1.316     1 C    0.934
     4   8 O    1.979 --     3 C    1.599    12 N    0.186
     5   8 O    1.987 --     8 C    1.640     7 N    0.183
     6   8 O    1.959 --    10 C    1.019    27 H    0.851
     7   7 N    3.431 --     8 C    1.261     1 C    0.980    28 H    0.928
                             5 O    0.183
     8   6 C    3.944 --     5 O    1.640     7 N    1.261     9 C    0.959
     9   6 C    3.988 --    11 N    1.033     8 C    0.959    29 H    0.959
                            10 C    0.928
    10   6 C    3.962 --     6 O    1.019    31 H    0.971    30 H    0.969
                             9 C    0.928
    11   7 N    3.009 --     9 C    1.033    33 H    0.963    32 H    0.935
    12   7 N    3.477 --     3 C    1.316    13 C    0.972    34 H    0.913
                             4 O    0.186
    13   6 C    3.961 --    14 C    1.009    12 N    0.972    35 H    0.951
                            15 C    0.914
    14   6 C    3.989 --    13 C    1.009    38 H    0.985    37 H    0.982
                            36 H    0.981
    15   6 C    3.953 --    16 O    1.691    17 N    1.270    13 C    0.914
    16   8 O    2.024 --    15 C    1.691    17 N    0.203
    17   7 N    3.459 --    15 C    1.270    20 C    0.978    39 H    0.908
                            16 O    0.203
    18   8 O    2.063 --    21 C    1.759    19 O    0.164
    19   8 O    2.374 --    21 C    1.117    44 C    0.980    18 O    0.164
    20   6 C    3.966 --    22 C    1.004    17 N    0.978    40 H    0.943
                            21 C    0.926
    21   6 C    3.909 --    18 O    1.759    19 O    1.117    20 C    0.926
    22   6 C    3.988 --    20 C    1.004    42 H    0.984    41 H    0.982
                            43 H    0.982
    23   1 H    0.995 --     1 C    0.949
    24   1 H    0.996 --     2 C    0.983
    25   1 H    0.996 --     2 C    0.983
    26   1 H    0.996 --     2 C    0.981
    27   1 H    0.899 --     6 O    0.851
    28   1 H    0.962 --     7 N    0.928
    29   1 H    0.998 --     9 C    0.959
    30   1 H    0.998 --    10 C    0.969
    31   1 H    0.999 --    10 C    0.971
    32   1 H    0.969 --    11 N    0.935
    33   1 H    0.978 --    11 N    0.963
    34   1 H    0.956 --    12 N    0.913
    35   1 H    0.995 --    13 C    0.951
    36   1 H    0.995 --    14 C    0.981
    37   1 H    0.996 --    14 C    0.982
    38   1 H    0.997 --    14 C    0.985
    39   1 H    0.958 --    17 N    0.908
    40   1 H    0.991 --    20 C    0.943
    41   1 H    0.996 --    22 C    0.982
    42   1 H    0.996 --    22 C    0.984
    43   1 H    0.996 --    22 C    0.982
    44   6 C    3.921 --    46 C    1.417    45 C    1.309    19 O    0.980
    45   6 C    3.988 --    47 C    1.381    44 C    1.309    54 C    1.070
    46   6 C    3.988 --    49 C    1.425    44 C    1.417    50 H    0.965
                            47 C    0.101
    47   6 C    3.986 --    48 C    1.452    45 C    1.381    53 H    0.965
                            46 C    0.101
    48   6 C    3.990 --    47 C    1.452    49 C    1.432    51 H    0.969
    49   6 C    3.988 --    48 C    1.432    46 C    1.425    52 H    0.969
    50   1 H    0.995 --    46 C    0.965
    51   1 H    0.997 --    48 C    0.969
    52   1 H    0.996 --    49 C    0.969
    53   1 H    0.994 --    47 C    0.965
    54   6 C    3.916 --    55 O    1.827    45 C    1.070    56 H    0.930
    55   8 O    2.056 --    54 C    1.827
    56   1 H    0.998 --    54 C    0.930
 ---------------------------------------------------------------------------

Topologies differ in total number of bonds
Writing topology from bond orders to xtbtopo.mol

molecular dipole:
                 x           y           z       tot (Debye)
 q only:        0.720      -0.349       0.466
   full:        0.655      -0.426       0.192       2.045
molecular quadrupole (traceless):
                xx          xy          yy          xz          yz          zz
 q only:        2.291       5.297      13.197       9.607      -5.083     -15.489
  q+dip:        0.512       4.021      14.855      10.005      -7.462     -15.368
   full:       -1.067       3.860      15.806       9.536      -5.571     -14.739

           -------------------------------------------------
          |                Geometry Summary                 |
           -------------------------------------------------

      molecular mass/u    :      422.4330889
   center of mass at/Å    :       -0.0000018      -0.0000038      -0.0000046
  moments of inertia/u·Å² :        0.2637431E+04   0.3085835E+04   0.3421915E+04
rotational constants/cm⁻¹ :        0.6391688E-02   0.5462907E-02   0.4926373E-02

 * 50 selected distances

     #   Z          #   Z                                           value/Å
     1   6 C        2   6 C                                       1.5224504 (max)
     3   6 C        4   8 O                                       1.2279317
     1   6 C        7   7 N                                       1.4513813
     5   8 O        8   6 C                                       1.2212485
     7   7 N        8   6 C                                       1.3488270
     6   8 O       10   6 C                                       1.4002604
     9   6 C       11   7 N                                       1.4448140
     3   6 C       12   7 N                                       1.3334008
    12   7 N       13   6 C                                       1.4532450
    13   6 C       14   6 C                                       1.5202160
    15   6 C       16   8 O                                       1.2120182
    15   6 C       17   7 N                                       1.3457704
    17   7 N       20   6 C                                       1.4496363
    18   8 O       21   6 C                                       1.2008026
    19   8 O       21   6 C                                       1.3351370
    20   6 C       22   6 C                                       1.5219544
     1   6 C       23   1 H                                       1.0960807
     2   6 C       24   1 H                                       1.0885192
     2   6 C       25   1 H                                       1.0867784
     2   6 C       26   1 H                                       1.0873075
     6   8 O       27   1 H                                       0.9761591 (min)
     7   7 N       28   1 H                                       1.0090014
     9   6 C       29   1 H                                       1.0966818
    10   6 C       30   1 H                                       1.0947538
    10   6 C       31   1 H                                       1.0983206
    11   7 N       32   1 H                                       1.0173971
    11   7 N       33   1 H                                       1.0147276
    12   7 N       34   1 H                                       1.0122864
    13   6 C       35   1 H                                       1.0969685
    14   6 C       36   1 H                                       1.0859546
    14   6 C       37   1 H                                       1.0873647
    14   6 C       38   1 H                                       1.0869496
    17   7 N       39   1 H                                       1.0134612
    20   6 C       40   1 H                                       1.0968520
    22   6 C       41   1 H                                       1.0862676
    22   6 C       42   1 H                                       1.0864257
    22   6 C       43   1 H                                       1.0873883
    19   8 O       44   6 C                                       1.3836737
    44   6 C       45   6 C                                       1.4037621
    44   6 C       46   6 C                                       1.3834163
    45   6 C       47   6 C                                       1.3922734
    47   6 C       48   6 C                                       1.3812264
    46   6 C       49   6 C                                       1.3862790
    48   6 C       49   6 C                                       1.3854794
    46   6 C       50   1 H                                       1.0785839
    48   6 C       51   1 H                                       1.0792784
    49   6 C       52   1 H                                       1.0792679
    47   6 C       53   1 H                                       1.0798568
    54   6 C       55   8 O                                       1.2117867
    54   6 C       56   1 H                                       1.1017905

 * 6 distinct bonds (by element types)

   Z      Z             #   av. dist./Å        max./Å        min./Å
   1 H    6 C          20     1.0890695     1.1017905     1.0785839
   6 C    6 C           9     1.4330064     1.5224504     1.3812264
   1 H    7 N           5     1.0133747     1.0173971     1.0090014
   6 C    7 N           7     1.4038678     1.4532450     1.3334008
   1 H    8 O           1     0.9761591     0.9761591     0.9761591
   6 C    8 O           8     1.2741074     1.4002604     1.2008026


optimized geometry written to: xtbopt.xyz


           -------------------------------------------------
          | TOTAL ENERGY              -94.155887005880 Eh   |
          | GRADIENT NORM               0.000156861238 Eh/α |
          | HOMO-LUMO GAP               1.879573977110 eV   |
           -------------------------------------------------

------------------------------------------------------------------------
 * finished run on 2021/06/02 at 13:06:40.099     
------------------------------------------------------------------------
 total:
 * wall-time:     0 d,  0 h,  0 min,  0.329 sec
 *  cpu-time:     0 d,  0 h,  0 min,  0.964 sec
 * ratio c/w:     2.929 speedup
 SCF:
 * wall-time:     0 d,  0 h,  0 min,  0.071 sec
 *  cpu-time:     0 d,  0 h,  0 min,  0.211 sec
 * ratio c/w:     2.986 speedup
 ANC optimizer:
 * wall-time:     0 d,  0 h,  0 min,  0.211 sec
 *  cpu-time:     0 d,  0 h,  0 min,  0.632 sec
 * ratio c/w:     2.992 speedup

