56
 energy: -94.155887005880 gnorm: 0.000156861314 xtb: 6.4.0 (d4b70c2)
C         0.96554717000000   -2.74177404000000    0.17727162000000
C         1.16832473000000   -4.23932533000000   -0.00732709000000
C        -0.46061281000000   -2.35403843000000   -0.23247501000000
O        -0.76651547000000   -2.21196531000000   -1.41317611000000
O         0.78974222000000   -0.08232140000000   -0.23277365000000
O         1.13933489000000   -1.67997875000000   -3.47719252000000
N         1.87833775000000   -1.99667252000000   -0.67016258000000
C         1.62665881000000   -0.68879064000000   -0.88332230000000
C         2.37922722000000   -0.08253095000000   -2.04904988000000
C         1.46157352000000   -0.33046622000000   -3.28822830000000
N         2.66627242000000    1.31187143000000   -1.80260606000000
N        -1.33469471000000   -2.24546140000000    0.76859922000000
C        -2.73149368000000   -1.90189817000000    0.56162553000000
C        -3.56891234000000   -2.45022378000000    1.70579585000000
C        -2.90516108000000   -0.36998391000000    0.44567555000000
O        -3.52031219000000    0.28546419000000    1.25867307000000
N        -2.33310336000000    0.14155747000000   -0.65984390000000
O        -0.12435088000000    2.47852209000000   -1.42526254000000
O        -0.74487029000000    2.09218531000000    0.71258859000000
C        -2.31928167000000    1.56416543000000   -0.93812611000000
C        -0.92534579000000    2.10978062000000   -0.61017735000000
C        -2.68748764000000    1.83544722000000   -2.38973753000000
H         1.13595318000000   -2.44910078000000    1.21971923000000
H         0.95804689000000   -4.51991736000000   -1.03782475000000
H         0.49839099000000   -4.78977759000000    0.64786629000000
H         2.19326218000000   -4.50971496000000    0.23480977000000
H         0.44076954000000   -1.93833373000000   -2.84620459000000
H         2.40667669000000   -2.50954705000000   -1.36001871000000
H         3.32503997000000   -0.61673321000000   -2.19997118000000
H         1.99583327000000   -0.00862597000000   -4.18793456000000
H         0.56381567000000    0.29166647000000   -3.17294626000000
H         1.81710516000000    1.78003880000000   -1.49465940000000
H         2.96744853000000    1.76219508000000   -2.66061170000000
H        -0.99018960000000   -2.21185341000000    1.71986703000000
H        -3.03182981000000   -2.34691827000000   -0.39498054000000
H        -4.61736502000000   -2.22765622000000    1.53113047000000
H        -3.27527027000000   -1.97537407000000    2.63888435000000
H        -3.44003035000000   -3.52618875000000    1.79034292000000
H        -1.76995087000000   -0.46097823000000   -1.24883764000000
H        -3.03797923000000    2.01625061000000   -0.24373634000000
H        -2.70025140000000    2.90535559000000   -2.57711561000000
H        -3.66832728000000    1.42247481000000   -2.60820543000000
H        -1.95399455000000    1.38066161000000   -3.05122924000000
C         0.51722359000000    2.23847332000000    1.26055916000000
C         0.94182574000000    1.24207740000000    2.15356321000000
C         1.35182380000000    3.29404991000000    0.93955873000000
C         2.21983146000000    1.32383645000000    2.69986160000000
C         3.04958206000000    2.38213520000000    2.38473633000000
C         2.61435278000000    3.36264491000000    1.50796419000000
H         1.02288834000000    4.04841454000000    0.24236527000000
H         4.03869646000000    2.44036060000000    2.81264321000000
H         3.26398492000000    4.18573378000000    1.25238262000000
H         2.53920017000000    0.54118576000000    3.37183802000000
C         0.06254598000000    0.10514941000000    2.41603172000000
O         0.40688003000000   -0.97371239000000    2.84721420000000
H        -0.99395228000000    0.30077798000000    2.17213985000000
