56
 energy: -94.155257053126 gnorm: 0.000156866377 xtb: 6.4.0 (d4b70c2)
c         0.96554716999974   -2.74177403999975    0.17727162000002
c         1.16832473000018   -4.23932533000001   -0.00732709000009
c        -0.46061281000015   -2.35403843000006   -0.23247500999993
o        -0.76651547000013   -2.21196530999986   -1.41317611000005
o         0.78974222000022   -0.08232139999975   -0.23277365000020
o         1.13933489000016   -1.67997875000005   -3.47719251999990
n         1.87833775000024   -1.99667252000018   -0.67016258000001
c         1.62665881000004   -0.68879063999998   -0.88332230000005
c         2.37922721999985   -0.08253094999992   -2.04904987999982
c         1.46157352000017   -0.33046621999991   -3.28822829999975
n         2.66627241999974    1.31187143000019   -1.80260605999978
n        -1.33469471000015   -2.24546139999986    0.76859922000021
c        -2.73149367999982   -1.90189817000006    0.56162553000010
c        -3.56891233999997   -2.45022377999994    1.70579585000026
c        -2.90516107999983   -0.36998390999976    0.44567554999984
o        -3.52031218999983    0.28546418999994    1.25867307000022
n        -2.33310336000025    0.14155747000007   -0.65984389999975
o        -0.12435088000003    2.47852208999980   -1.42526253999986
o        -0.74487029000024    2.09218530999977    0.71258858999994
c        -2.31928166999980    1.56416543000019   -0.93812610999987
c        -0.92534579000004    2.10978061999980   -0.61017734999978
c        -2.68748764000025    1.83544721999977   -2.38973752999977
h         1.13595318000016   -2.44910077999997    1.21971923000010
h         0.95804688999974   -4.51991736000002   -1.03782475000005
h         0.49839099000004   -4.78977758999985    0.64786629000004
h         2.19326217999990   -4.50971496000007    0.23480977000026
h         0.44076954000011   -1.93833372999997   -2.84620459000008
h         2.40667669000014   -2.50954704999985   -1.36001871000015
h         3.32503996999977   -0.61673320999980   -2.19997117999999
h         1.99583327000015   -0.00862597000007   -4.18793456000020
h         0.56381566999979    0.29166647000004   -3.17294626000024
h         1.81710516000007    1.78003880000006   -1.49465940000000
h         2.96744853000006    1.76219508000006   -2.66061170000012
h        -0.99018959999988   -2.21185341000025    1.71986703000014
h        -3.03182981000008   -2.34691827000014   -0.39498053999977
h        -4.61736501999986   -2.22765621999982    1.53113047000019
h        -3.27527027000016   -1.97537407000008    2.63888434999983
h        -3.44003035000001   -3.52618875000004    1.79034292000024
h        -1.76995086999990   -0.46097822999995   -1.24883763999995
h        -3.03797923000001    2.01625060999982   -0.24373634000014
h        -2.70025139999993    2.90535559000015   -2.57711561000004
h        -3.66832728000007    1.42247481000020   -2.60820543000005
h        -1.95399454999982    1.38066160999975   -3.05122923999977
c         0.51722359000018    2.23847331999974    1.26055915999984
c         0.94182573999997    1.24207740000020    2.15356321000010
c         1.35182380000023    3.29404990999991    0.93955873000014
c         2.21983145999983    1.32383645000026    2.69986159999995
c         3.04958205999986    2.38213519999983    2.38473633000010
c         2.61435277999983    3.36264490999989    1.50796419000002
h         1.02288834000024    4.04841453999992    0.24236526999977
h         4.03869646000010    2.44036060000025    2.81264321000020
h         3.26398492000011    4.18573378000004    1.25238262000009
h         2.53920017000005    0.54118575999993    3.37183802000003
c         0.06254597999988    0.10514940999985    2.41603171999990
o         0.40688003000009   -0.97371238999989    2.84721420000026
h        -0.99395227999993    0.30077797999989    2.17213985000023
56
 energy: -94.096137458110 gnorm: 0.096579172237 xtb: 6.4.0 (d4b70c2)
c         0.89113300509478   -2.57697711415618    0.26875658412389
c         1.31116085869130   -3.99599142039876    0.62629021016723
c        -0.55689791076769   -2.41831991071414   -0.21103280712718
o        -0.89299767400969   -2.46740917943033   -1.39105123722458
o         0.95016628247175    0.05162230910162   -0.30220344233791
o         1.25781061735294   -1.54718437363694   -3.88513668897384
n         1.79338943561043   -2.00387284058564   -0.71307459818380
c         1.69782817077958   -0.67701136400383   -0.93587728331211
c         2.48056076313658   -0.21834265417795   -2.14822357059439
c         1.59677917386216   -0.26530070489794   -3.43502130641388
n         2.98530297208247    1.13305973849395   -2.06800900067785
n        -1.41017285928701   -2.25329283462246    0.80022664952520
c        -2.81213512418598   -1.91482322362430    0.62172929715159
c        -3.61522287862020   -2.48795674061110    1.77828658001821
c        -2.93008065010283   -0.38436065489369    0.43696116344049
o        -3.68491991677119    0.26950968499765    1.12373575623223
n        -2.18363904040203    0.14370758329657   -0.55049352093304
o        -0.30482585051430    2.72312041352375   -1.40471119265780
o        -0.71170006880872    2.15586007821122    0.72732909612239
c        -2.36422374207435    1.55533015859867   -0.82645789743556
c        -1.02665924694326    2.25640345279338   -0.56622513856925
c        -2.89911716948418    1.81779289669098   -2.22693907295868
h         1.00490300588874   -1.94956339786938    1.16027286719566
h         1.12058839493400   -4.54937462151801   -0.29149149258873
h         0.74529658417375   -4.25725257203871    1.51658651241156
h         2.35995859277779   -3.90516119338373    0.89833941686242
h         0.63807992253885   -2.04155691628875   -3.31556117444053
h         1.88666900078392   -2.56629858136123   -1.54557685598852
h         3.30766595593347   -0.92956573010869   -2.26122705949967
h         2.09219635861946    0.20242352087559   -4.29192377648968
h         0.66600429105742    0.28660519328391   -3.24696230679492
h         2.27619412886848    1.77487429471676   -1.72111479307643
h         3.24523447784236    1.46628979242659   -2.99054109275192
h        -1.06609222112891   -2.18145808129270    1.74952744535772
h        -3.08345882141036   -2.32488104072998   -0.35887046710998
h        -4.66995710843234   -2.24000017675346    1.70513888776392
h        -3.39595288229976   -2.16772817543828    2.79403083851471
h        -3.52121063193209   -3.56965459852015    1.72778079270151
h        -1.70655913395841   -0.45177790877661   -1.21749833816274
h        -3.15730038231750    1.94311904740421   -0.17550967731342
h        -3.20383274199992    2.85140136016874   -2.36397683817841
h        -3.80699673966698    1.25011007663374   -2.41081876748960
h        -2.24533534497951    1.45382176488884   -3.01593064050421
c         0.59360425228349    2.17174194918377    1.18611163859934
c         0.94520685915151    1.16987717430312    2.10436586009134
c         1.49471213675889    3.18535392798743    0.91328164006417
c         2.21821994458922    1.17343495613188    2.66814795942779
c         3.01575790388109    2.29702543691046    2.57189855821219
c         2.62600753881708    3.30544119396035    1.70544280273000
h         1.35238953877386    4.03686909252264    0.26674508536313
h         4.01684705189761    2.28038658861847    2.97486939115091
h         3.15529679758029    4.24102741431558    1.60874490386421
h         2.38218679380246    0.43771811904968    3.44140499497960
c         0.04369232038361    0.05629904890679    2.39044854822073
o         0.40076474427675   -1.03924654184467    2.76555685718386
h        -1.02563456143543    0.14238942307664    2.13930940002533
56
 energy: -94.085730307498 gnorm: 0.111171015413 xtb: 6.4.0 (d4b70c2)
c         1.01111837452534   -2.40403427565530    0.26127861269989
c         1.38614093690384   -3.76613238934676    0.82864278080376
c        -0.42329100435049   -2.23967635131623   -0.25604112173944
o        -0.75673982718859   -2.19877909563777   -1.43712350623822
o         0.78552257455827   -0.17513297768870   -0.88203368504288
o         0.92142721256728   -1.50138401909459   -3.91400787058118
n         1.96880901435651   -2.08770287461328   -0.78240272195567
c         1.70876312404059   -0.86424700149244   -1.28724550042840
c         2.64143908507855   -0.41212628378056   -2.39111742455867
c         1.68655572853039   -0.36455169014754   -3.62604973128434
n         3.17425951174025    0.91292496349106   -2.17241880413064
n        -1.32123203946115   -2.15007467724823    0.72560606462935
c        -2.73776972124768   -1.93967699167810    0.47847253346420
c        -3.50216040833450   -2.69126291564597    1.55637892601770
c        -3.04472269807981   -0.42461643184464    0.45131652305025
o        -3.88231385399866    0.14508966657354    1.11679687214155
n        -2.32817482206067    0.18103043310297   -0.51348858965025
o        -0.25060685593472    2.61166723238763   -1.27977180198043
o        -0.76476388725812    1.98609051754253    0.87475287303399
c        -2.37526161910863    1.61842677561454   -0.69547773217564
c        -0.99004159902637    2.21370391555122   -0.42140795681529
c        -2.84421847364324    1.92312996949787   -2.11095666687980
h         1.22372906655389   -1.74167682309217    1.10831590006402
h         1.04826485713840   -4.55599859183855    0.16019291562040
h         0.83166008444194   -3.90642460266717    1.75274036854075
h         2.46901826634990   -3.81382411226152    0.91431527977693
h         0.41170438478606   -1.88128012230051   -3.17323246508348
h         2.19145027714808   -2.75258525210578   -1.50796877178852
h         3.45970433785683   -1.09063121119816   -2.66090269450105
h         2.32580387661175   -0.16446592914806   -4.49196743806269
h         0.98324116475175    0.47552465364786   -3.54905264580539
h         2.48424925777681    1.38795996647558   -1.59507621719326
h         3.28117740690853    1.34420110691229   -3.08469155347257
h        -1.07309497726786   -2.02128365744907    1.69852157445044
h        -2.83284849625087   -2.23263539376263   -0.57436898314992
h        -4.56091232010041   -2.53271100788625    1.37416197005054
h        -3.16084618177250   -2.55927510594234    2.58031538873871
h        -3.35111455656404   -3.74957427517025    1.35985511309557
h        -1.61011442402094   -0.35085138912745   -0.99160429034714
h        -3.08787292855756    2.05097058108158    0.01738644863052
h        -2.78336865086409    2.97141493912804   -2.38911724088020
h        -3.84583244135410    1.52230383106665   -2.23913117374895
h        -2.02480903990143    1.53228949223069   -2.70947588168459
c         0.49384817954934    2.23040357876909    1.39509873281261
c         0.88637454767689    1.29514290849178    2.36554129314680
c         1.41488472721452    3.17888334033803    0.98776754056829
c         2.18180566712951    1.26376849105512    2.87475549404745
c         3.04523948574074    2.27716994726351    2.50694324531352
c         2.68928197341922    3.19612085092025    1.53309687352550
h         1.06942790259734    3.80268564897127    0.17852494735345
h         3.96599729610344    2.38032227795746    3.06048320020124
h         3.48377051232713    3.82063921957853    1.15417214091242
h         2.40735082518094    0.37802851966512    3.44980760049233
c        -0.12529369327707    0.31268281315154    2.74754594681129
o         0.05048149370468   -0.81165763902606    3.16394568436840
h        -1.16730375586047    0.66430839463827    2.68033817117688
56
 energy: -94.086893617877 gnorm: 0.107596534941 xtb: 6.4.0 (d4b70c2)
c         1.12733099538867   -2.06050289330536    0.41946333780882
c         1.45869772560848   -3.48358174571909    0.84712904819312
c        -0.28677664776013   -2.16066660595385   -0.16571210620784
o        -0.44094926125989   -2.46151073374590   -1.34619502214827
o         1.10877285975872    0.24028689387484   -0.98313878865562
o         0.76463350964807   -1.64103330261471   -4.04836026474605
n         2.04728651501873   -1.81420483910691   -0.67576574937548
c         1.85140413666220   -0.65934368513106   -1.34454088184117
c         2.55193592468289   -0.56815523581109   -2.68385813212684
c         1.45684819793438   -0.45130746138055   -3.79122114270187
n         3.48886028363895    0.53015268278144   -2.74199558205054
n        -1.28516497743196   -2.05746090101374    0.71208461445839
c        -2.68310483303317   -2.04118440799854    0.31532221073132
c        -3.66944396449031   -2.77794017604809    1.20716455574640
c        -3.07463756714745   -0.54556207647608    0.32881424837763
o        -3.88603705105922   -0.12666496330087    1.12577357138827
n        -2.38325868669813    0.19465445390595   -0.55728541877553
o        -0.37206580558785    2.70632658141839   -1.19385308312187
o        -0.77626927091463    2.01664491886614    0.94313459045569
c        -2.45748851514635    1.64058451185007   -0.62954646670837
c        -1.05943591207341    2.20160062156852   -0.34845313345096
c        -2.93379116198066    2.14429354379306   -1.98444800606781
h         1.32003574586300   -1.32674324134355    1.21057301324942
h         1.45884463330032   -4.07930855240705   -0.06390532820204
h         0.82616497552361   -3.94319654716474    1.60194281753319
h         2.41966504331124   -3.66121300690365    1.32381189564562
h         0.12296436037884   -1.77639847652350   -3.32529485668402
h         2.29519519684259   -2.60014507641359   -1.25793671113342
h         3.07735010404713   -1.52273971810375   -2.80803324403278
h         1.92947752376641   -0.25770950067846   -4.75953273072794
h         0.73139433023238    0.33686931225771   -3.54872939115677
h         2.98803959285840    1.40571269167507   -2.87492478828300
h         4.07167595176165    0.51065679339820   -3.57242795419884
h        -1.04495960173640   -1.99823332661964    1.69367372812959
h        -2.59394574953834   -2.32498915880317   -0.74054017516615
h        -4.63725008139479   -2.63365379583141    0.73617613002146
h        -3.89457383906000   -2.27673540610956    2.14549945349326
h        -3.35175233670190   -3.81506359388039    1.27721052399532
h        -1.67332653020962   -0.22573165030096   -1.14582215238433
h        -3.25278865896480    1.92571795950454    0.06993974579178
h        -2.98823670313557    3.22254677344516   -1.86451870588036
h        -3.91869123448412    1.72757346091351   -2.17585609762260
h        -2.28500717320390    1.63611878249791   -2.69384993547719
c         0.47788802944665    2.18213855356948    1.50371850998350
c         0.69343933177801    1.40330455590844    2.65154404183705
c         1.47112951270520    2.98189498574873    0.96734004051674
c         1.98961977082591    1.34638513346250    3.15661993725136
c         3.05313983079801    1.92170034548827    2.48899445022206
c         2.75190555190894    2.80971695981798    1.46907403278271
h         1.35869036935932    3.60012051924438    0.09069989884022
h         4.06364668415173    1.77688974830821    2.83934800439370
h         3.50810373560511    3.43494459510897    1.01954774443732
h         2.25177758077221    0.58149736036930    3.87237884057367
c        -0.32474856994175    0.46431034793357    3.11652927126161
o         0.00193945357103   -0.55632766725587    3.68221475523200
h        -1.38330905910637    0.64015687553278    2.86658910436676
56
 energy: -94.093736098863 gnorm: 0.101793592858 xtb: 6.4.0 (d4b70c2)
c         1.26571328963878   -1.89030148284646    0.42608595328531
c         1.69592764706842   -3.02664342330863    1.34341789514502
c        -0.12706794728181   -1.99418674497266   -0.20757939618246
o        -0.22713044282954   -2.07698448158865   -1.42862334744824
o         1.42512587242292    0.35509844086314   -1.02132437477855
o         0.51279943286421   -1.84703453462007   -3.99271724766020
n         2.15943802257977   -1.77433303581905   -0.71159373087479
c         1.96745837132630   -0.65569912634322   -1.44038475565927
c         2.43813050400764   -0.73033159142737   -2.87764901575082
c         1.13268421967866   -0.61973115018122   -3.72776718936321
n         3.51171032026329    0.23559671339828   -2.92119656206157
n        -1.21236511991685   -2.05539108971832    0.56465232632034
c        -2.58940054778728   -1.98899611080603    0.10499342308877
c        -3.42890826328220   -2.89693198533515    0.98926485025797
c        -3.00237194592040   -0.50966242788118    0.28217287257343
o        -3.81339177294450   -0.13674226039678    1.10202985216556
n        -2.35074632097816    0.30169345919667   -0.57116384885396
o        -0.67071254591722    3.25483532775561   -0.95480547705227
o        -0.70766313152641    1.66202414449922    0.70887295318221
c        -2.54449559357628    1.73798727588544   -0.60225652446871
c        -1.18095963686219    2.37578402090575   -0.31539657623057
c        -3.17953835946389    2.31356303869111   -1.85994424994405
h         1.38609119122784   -0.89027452698110    0.85834526728590
h         1.53881128268479   -3.98106150529993    0.84414376430246
h         1.07104862796266   -3.07570669024489    2.23122771678048
h         2.75289690957335   -2.89260287430632    1.56041258868329
h        -0.05510289041067   -1.96191659623109   -3.20711195563428
h         2.38977013947001   -2.61056466610267   -1.22710083654829
h         2.87536983173399   -1.72181778378624   -3.04643275966567
h         1.42555637268739   -0.33593518147083   -4.74372571776776
h         0.48029409129252    0.14558267438753   -3.28619040069363
h         3.35556301524119    0.99290276781677   -2.25998371714111
h         3.74993657284399    0.45130847302194   -3.88368750052058
h        -1.05779085606035   -1.82682655091445    1.53860754341351
h        -2.57250454040550   -2.28990473888485   -0.94976170516125
h        -4.38901487697818   -2.97296393075916    0.48755599997130
h        -3.44518354283563   -2.57921583265258    2.02905022423178
h        -2.99655181339000   -3.89412097250305    1.00115670630013
h        -1.59970736099220   -0.11116415658855   -1.11208223602005
h        -3.19510838048682    1.97386767902812    0.24871221679005
h        -3.38231448634072    3.37792914822962   -1.78258785520046
h        -4.07958538351681    1.81451923224800   -2.20806990786172
h        -2.40187026635669    2.38125426105523   -2.61695388452387
c         0.53431759178699    1.77490559112638    1.30828489633249
c         0.65846949135426    1.14052880460521    2.55435897575992
c         1.62042146413578    2.43382906194371    0.76052664743973
c         1.90093897520163    1.09014632147680    3.18058289394467
c         2.93908106830132    1.84992950846022    2.67781375571872
c         2.78360801976041    2.56734075861287    1.50278078417506
h         1.45618175887469    3.01102140414017   -0.13569744442211
h         3.93673504958235    1.68760486775341    3.05620385177992
h         3.56780253180753    3.26325866602304    1.24674092110203
h         2.00934952193354    0.66750367484809    4.16836382946945
c        -0.46986380948840    0.43808687011962    3.16104446612298
o        -0.34473071944087   -0.31676550050364    4.10070754547528
h        -1.42023950120721    0.65376419456950    2.64702916548615
56
 energy: -94.096967030049 gnorm: 0.102918777778 xtb: 6.4.0 (d4b70c2)
c         1.30699490675436   -1.67337325781620    0.43329998503236
c         1.67581487690338   -2.70608503673928    1.48939344756069
c        -0.13717090912385   -1.79328878801254   -0.06886402498368
o        -0.36190551761417   -1.78487089488839   -1.27602586125774
o         1.64126220497509    0.44306033782203   -1.28691190929758
o         0.54828833854566   -1.88698540159245   -3.97988889581209
n         2.11115575649196   -1.72058023615874   -0.77401288473640
c         2.03080073522211   -0.66750981316515   -1.61301229864273
c         2.60124330071573   -0.86417960807015   -3.00180565377838
c         1.38117884542598   -0.76139683220439   -3.97134252673036
n         3.53742943337414    0.22441223755639   -3.16308423926469
n        -1.15106321909784   -1.89879979979665    0.79069832945924
c        -2.50610466068300   -1.94035085569672    0.26719350679124
c        -3.34837337048783   -2.93415303500612    1.05077332077780
c        -2.96030423141451   -0.46277612447929    0.29620547039153
o        -3.63942271231358    0.05046859112453    1.15897195495852
n        -2.43400996537786    0.22397717230384   -0.73456226457489
o        -1.04462276680113    3.43975469160237   -0.18714837372214
o        -0.66627949752391    1.39852748770105    0.58945272694987
c        -2.65814854563934    1.65378264861404   -0.65171507494872
c        -1.36355792098090    2.28365839977760   -0.12674338009200
c        -2.99134204912862    2.38075737918687   -1.94664172157173
h         1.37326032152355   -0.60617021041601    0.67429658746503
h         1.46476043978445   -3.71906041535805    1.15144231120071
h         1.14423522361572   -2.40758794565380    2.38906550561138
h         2.74085245088566   -2.55702822354408    1.64975118361314
h         0.20847230174479   -2.02388161609946   -3.07508444316533
h         2.21010853649574   -2.66145420696275   -1.12479525454549
h         3.13712431263166   -1.80632834612064   -3.16883351864654
h         1.88108586248550   -0.75075867186979   -4.94523460384533
h         0.82213696809986    0.17284488181796   -3.82652272245117
h         3.09558183431525    1.13789540396385   -3.08949033158907
h         3.83414562684674    0.28771255946644   -4.13139445837828
h        -0.90202729155780   -1.57205926111339    1.71587150193561
h        -2.47974673418565   -2.22978594196030   -0.79057415265496
h        -4.37299266027398   -2.94218471661663    0.69106770231647
h        -3.42033085984799   -2.71387618866118    2.11315850738103
h        -2.91823212742682   -3.92381708949997    0.92037794030471
h        -1.66578276133580   -0.10184653219714   -1.30968790647202
h        -3.47859214673873    1.78328519519131    0.06465476961318
h        -2.73083664505021    3.42281618934973   -1.78469187074856
h        -4.05904150633944    2.46180639813891   -2.13040724458778
h        -2.56912711631588    2.01208267074448   -2.87842864168913
c         0.51338993272758    1.61783725303928    1.27853633380632
c         0.59507227854625    0.94830012632215    2.50963184328283
c         1.62474650147303    2.16905132531772    0.66625338411905
c         1.80573748763381    1.01973101030434    3.19345383982173
c         2.84247121972619    1.78096641139990    2.68997584084946
c         2.79891971112445    2.27355000309102    1.39575101687781
h         1.45525366282083    2.57418325252112   -0.31887786343512
h         3.75875836813555    1.92905324285265    3.24072982807579
h         3.70691128959430    2.56353975570080    0.88951353032996
h         1.85725885302066    0.47403429039381    4.12385775256415
c        -0.58284732523269    0.32619189362549    3.10972739788093
o        -0.57642264447912   -0.31318899140098    4.13908539034872
h        -1.48127497448010    0.56147177185601    2.51692599106784
56
 energy: -94.096665427101 gnorm: 0.110239705164 xtb: 6.4.0 (d4b70c2)
c         1.13855895467992   -1.53517053171908    0.18104696082817
c         1.57900289167460   -2.62277087864953    1.15109330927249
c        -0.30535666920352   -1.65731237719404   -0.32130007495781
o        -0.54924002718558   -1.46904569686193   -1.50995177693948
o         1.77819205620755    0.56438849991970   -1.74374502491223
o         0.98162546332563   -2.12142703620456   -3.86661195190888
n         2.09442678606773   -1.54938382630305   -0.91102552725410
c         2.23731185639643   -0.56459288642788   -1.82157757674621
c         2.93745863180069   -0.93367874403478   -3.11246910686878
c         1.83951773418245   -1.07089666207763   -4.21465801908783
n         3.89175346524224    0.04396691473051   -3.58259445142349
n        -1.20021266917004   -1.83285630632793    0.65151790997002
c        -2.64518767831773   -1.86282470381085    0.49962883134140
c        -3.39959630839458   -2.63887170181998    1.56718463370977
c        -3.04882318800382   -0.37229209417151    0.57550369858925
o        -3.55429954319975    0.25862742257890    1.47851106145714
n        -2.80091598942494    0.20142465397434   -0.61633899474730
o        -1.38402398409608    3.44860678584097    0.25458689639653
o        -0.85517161073983    1.33625931792253    0.77178412189716
c        -2.67671916232548    1.64222858756992   -0.71686084067334
c        -1.59742870042924    2.26982927868795    0.17170716681543
c        -2.46679326440239    2.11177803917805   -2.14927126272026
h         1.02201522695989   -0.51385646798388    0.56147830901153
h         1.46861890516512   -3.64231888938439    0.78611205608029
h         1.09538641736123   -2.62709439177865    2.12432693289689
h         2.63589965007620   -2.48838981173505    1.36823049971552
h         0.46950026403752   -1.99929515024592   -3.04460331783689
h         2.39824157421331   -2.48660498921252   -1.12873374468396
h         3.47337261665915   -1.88368091778783   -2.99843786546218
h         2.32607797397349   -1.23320151657342   -5.18181997500941
h         1.31997473618038   -0.10552766598233   -4.28133608942714
h         3.40979329369849    0.92685278110526   -3.42987311218350
h         4.10326488773315   -0.20604610978096   -4.54302587702428
h        -0.76829830346557   -2.04301472533679    1.54258869175785
h        -2.92036753177724   -2.22093670342979   -0.50005697085584
h        -4.40868851344980   -2.76651251712080    1.18674005011400
h        -3.44606328041955   -2.03792333913924    2.47220615192060
h        -2.94446000811290   -3.60704521388466    1.75940947930530
h        -2.22207695748595   -0.32495399869382   -1.26052415585932
h        -3.57850100041833    1.91949992769854   -0.15740174238216
h        -2.46431431629131    3.19725295990117   -2.10785346287616
h        -3.18019268527011    1.67069859072830   -2.83980078841238
h        -1.46908863244940    1.78587742760434   -2.43350287502036
c         0.35557305254486    1.55879083516001    1.40355156656314
c         0.51552956969516    0.95137145782814    2.65894148390913
c         1.34910123596548    2.32082753599439    0.81529763261143
c         1.73223940284176    1.02466841492747    3.33174900523569
c         2.76580663735814    1.62988523641236    2.64382627844627
c         2.58351901064963    2.30160597461458    1.44586311878814
h         1.33785777815352    2.77641877812717   -0.16227769474061
h         3.70324817685215    1.72740929209792    3.16969150875277
h         3.37327891751032    2.84580437465556    0.95094234744597
h         1.94314167552537    0.46345918351168    4.22988889831617
c        -0.62190648094453    0.31182260420863    3.31609025110829
o        -0.48794998812696   -0.68121938293602    3.99752283696455
h        -1.59985070391250    0.80025784910229    3.17825517008264
56
 energy: -94.090305492858 gnorm: 0.111212406037 xtb: 6.4.0 (d4b70c2)
c         1.08985401020328   -1.51288085666168   -0.14709040437393
c         1.66241994565486   -2.52412173881011    0.83648241018996
c        -0.42564200825191   -1.60839191423385   -0.36229514771607
o        -0.79152404219811   -1.49449064172369   -1.52890271463517
o         2.12857008163748    0.52521554631299   -1.57573163086091
o         1.17390589800914   -2.47413141272161   -3.90807121107191
n         1.83314669258611   -1.71521826884659   -1.37716490569391
c         2.31800498379196   -0.61102961948293   -1.98132904065201
c         3.09393122114225   -0.96852787710004   -3.23151477203490
c         2.16465108785617   -1.57841519916837   -4.32860150511381
n         3.97290233750218    0.09006621662525   -3.67228212510955
n        -1.23005859083344   -1.60509108285365    0.70112430601849
c        -2.68076034864496   -1.68816554177617    0.72313087559841
c        -3.11334223928610   -2.38609116918022    2.00251724738056
c        -3.09482694188926   -0.20094335324442    0.63895745068296
o        -3.55687702563546    0.39209917443875    1.58964057278773
n        -2.83150775810068    0.35331293913574   -0.55877411867302
o        -1.59462918018357    3.51145510140945    0.48015483434653
o        -1.11346034835914    1.37922396277620    0.87633228206445
c        -2.74113836746063    1.77916298877075   -0.80419314476382
c        -1.77309375926577    2.34889847720026    0.23820540935378
c        -1.95264663159131    1.96511957253712   -2.09262091585489
h         1.26111813025847   -0.50111074718396    0.23811441663024
h         1.19552864561083   -3.50081990169746    0.72269616348163
h         1.60260552783675   -2.29184038391401    1.89646113485076
h         2.72008505566913   -2.63344143576350    0.60925715133119
h         0.31981978731141   -2.05270389593616   -3.69400958889087
h         1.88031941951391   -2.59057298681223   -1.87677744262808
h         3.84183856560807   -1.72821300531189   -2.97417417026077
h         2.87001527382481   -2.04502096108748   -5.02374639583159
h         1.74727070807364   -0.74145541821734   -4.90444883188700
h         3.75168439614341    1.04594360439296   -3.40310204063677
h         4.13810287981831    0.20013291834374   -4.66740333774302
h        -0.73159757911376   -1.74831947615665    1.57046083584486
h        -3.06971941619398   -2.12426080053210   -0.20523955737463
h        -4.18622366668455   -2.28579544707764    2.13728949059614
h        -2.49679257967337   -2.00565126795649    2.81337732754490
h        -2.90143660965391   -3.44849353102377    1.91387962851423
h        -2.39931587241581   -0.22401045799155   -1.27082153080062
h        -3.74974457802448    2.21002265646202   -0.79162993427865
h        -1.77466618555082    3.02191321546771   -2.27006820805674
h        -2.61916552153674    1.55975294317134   -2.84876329928229
h        -0.98530909540917    1.47061271369806   -2.04642124552653
c         0.09936673750128    1.59862976589080    1.50519200936981
c         0.35343309286083    0.92144144395753    2.70827740248323
c         1.05245672422848    2.51445483129998    1.09687256128466
c         1.62360919284433    0.98357683014897    3.27503755576551