      -----------------------------------------------------------      
     |                   =====================                   |     
     |                           x T B                           |     
     |                   =====================                   |     
     |                         S. Grimme                         |     
     |          Mulliken Center for Theoretical Chemistry        |     
     |                    University of Bonn                     |     
      -----------------------------------------------------------      

   * xtb version 6.4.0 (d4b70c2) compiled by 'ehlert@majestix' on 2021-02-01

   xtb is free software: you can redistribute it and/or modify it under
   the terms of the GNU Lesser General Public License as published by
   the Free Software Foundation, either version 3 of the License, or
   (at your option) any later version.
   
   xtb is distributed in the hope that it will be useful,
   but WITHOUT ANY WARRANTY; without even the implied warranty of
   MERCHANTABILITY or FITNESS FOR A PARTICULAR PURPOSE.  See the
   GNU Lesser General Public License for more details.
   
   Cite this work as:
   * C. Bannwarth, E. Caldeweyher, S. Ehlert, A. Hansen, P. Pracht,
     J. Seibert, S. Spicher, S. Grimme, WIREs Comput. Mol. Sci., 2020,
     e01493. DOI: 10.1002/wcms.1493
   
   for GFN2-xTB:
   * C. Bannwarth, S. Ehlert and S. Grimme., J. Chem. Theory Comput., 2019,
     15, 1652-1671. DOI: 10.1021/acs.jctc.8b01176
   for GFN1-xTB:
   * S. Grimme, C. Bannwarth, P. Shushkov, J. Chem. Theory Comput., 2017,
     13, 1989-2009. DOI: 10.1021/acs.jctc.7b00118
   for GFN0-xTB:
   * P. Pracht, E. Caldeweyher, S. Ehlert, S. Grimme, ChemRxiv, 2019, preprint.
     DOI: 10.26434/chemrxiv.8326202.v1
   for GFN-FF:
   * S. Spicher and S. Grimme, Angew. Chem. Int. Ed., 2020, 59, 15665-15673.
     DOI: 10.1002/anie.202004239
   
   for DFT-D4:
   * E. Caldeweyher, C. Bannwarth and S. Grimme, J. Chem. Phys., 2017,
     147, 034112. DOI: 10.1063/1.4993215
   * E. Caldeweyher, S. Ehlert, A. Hansen, H. Neugebauer, S. Spicher,
     C. Bannwarth and S. Grimme, J. Chem. Phys., 2019, 150, 154122.
     DOI: 10.1063/1.5090222
   * E. Caldeweyher, J.-M. Mewes, S. Ehlert and S. Grimme, Phys. Chem. Chem. Phys.
     2020, 22, 8499-8512. DOI: 10.1039/D0CP00502A
   
   for sTDA-xTB:
   * S. Grimme and C. Bannwarth, J. Chem. Phys., 2016, 145, 054103.
     DOI: 10.1063/1.4959605
   
   in the mass-spec context:
   * V. Asgeirsson, C. Bauer and S. Grimme, Chem. Sci., 2017, 8, 4879.
     DOI: 10.1039/c7sc00601b
   * J. Koopman and S. Grimme, ACS Omega 2019, 4, 12, 15120-15133.
     DOI: 10.1021/acsomega.9b02011
   
   for metadynamics refer to:
   * S. Grimme, J. Chem. Theory Comput., 2019, 155, 2847-2862
     DOI: 10.1021/acs.jctc.9b00143
   
   with help from (in alphabetical order)
   P. Atkinson, C. Bannwarth, F. Bohle, G. Brandenburg, E. Caldeweyher
   M. Checinski, S. Dohm, S. Ehlert, S. Ehrlich, I. Gerasimov, J. Koopman
   C. Lavinge, S. Lehtola, F. März, M. Müller, F. Musil, H. Neugebauer
   J. Pisarek, P. Pracht, J. Seibert, P. Shushkov, S. Spicher, M. Stahn
   T. Strunk, J. Stückrath, T. Rose, and J. Unsleber
   
 * started run on 2021/06/02 at 12:32:17.752     

           -------------------------------------------------
          |                Calculation Setup                |
           -------------------------------------------------

          program call               : xtb coord --gfn2 --md
          hostname                   : bell-a017
          coordinate file            : coord
          omp threads                :                     2
          number of atoms            :                    56
          number of electrons        :                   164
          charge                     :                     0
          spin                       :                   0.0
          first test random number   :      0.47901615114714

   ID    Z sym.   atoms
    1    6 c      1-3, 8-10, 13-15, 20-22, 44-49, 54
    2    8 o      4-6, 16, 18, 19, 55
    3    7 n      7, 11, 12, 17
    4    1 h      23-43, 50-53, 56
########################################################################
[WARNING] Please study the warnings concerning your input carefully
-1- set_rdsetbl: Set-blocks will become obsolete in xtb 6.0 and newer
########################################################################

           -------------------------------------------------
          |                 G F N 2 - x T B                 |
           -------------------------------------------------

        Reference                      10.1021/acs.jctc.8b01176
      * Hamiltonian:
        H0-scaling (s, p, d)           1.850000    2.230000    2.230000
        zeta-weighting                 0.500000
      * Dispersion:
        s8                             2.700000
        a1                             0.520000
        a2                             5.000000
        s9                             5.000000
      * Repulsion:
        kExp                           1.500000    1.000000
        rExp                           1.000000
      * Coulomb:
        alpha                          2.000000
        third order                    shell-resolved
        anisotropic                    true
        a3                             3.000000
        a5                             4.000000
        cn-shift                       1.200000
        cn-exp                         4.000000
        max-rad                        5.000000


          ...................................................
          :                      SETUP                      :
          :.................................................:
          :  # basis functions                 146          :
          :  # atomic orbitals                 146          :
          :  # shells                           86          :
          :  # electrons                       164          :
          :  max. iterations                   250          :
          :  Hamiltonian                  GFN2-xTB          :
          :  restarted?                      false          :
          :  GBSA solvation                  false          :
          :  PC potential                    false          :
          :  electronic temp.          300.0000000     K    :
          :  accuracy                    1.0000000          :
          :  -> integral cutoff          0.2500000E+02      :
          :  -> integral neglect         0.1000000E-07      :
          :  -> SCF convergence          0.1000000E-05 Eh   :
          :  -> wf. convergence          0.1000000E-03 e    :
          :  Broyden damping             0.4000000          :
          ...................................................

 iter      E             dE          RMSdq      gap      omega  full diag
   1    -95.0564951 -0.950565E+02  0.452E+00    2.24       0.0  T
   2    -95.2472720 -0.190777E+00  0.242E+00    2.05       1.0  T
   3    -95.2532092 -0.593718E-02  0.125E+00    2.12       1.0  T
   4    -95.2595432 -0.633404E-02  0.300E-01    1.84       1.0  T
   5    -95.2625268 -0.298361E-02  0.100E-01    1.87       1.0  T
   6    -95.2626609 -0.134039E-03  0.509E-02    1.88       1.0  T
   7    -95.2627019 -0.410799E-04  0.213E-02    1.88       1.0  T
   8    -95.2627049 -0.292126E-05  0.658E-03    1.88       2.0  T
   9    -95.2627052 -0.317775E-06  0.310E-03    1.88       4.3  T
  10    -95.2627054 -0.234976E-06  0.120E-03    1.88      11.2  T
  11    -95.2627054 -0.182077E-07  0.552E-04    1.88      24.2  T
  12    -95.2627054 -0.778101E-08  0.193E-04    1.88      69.2  T

   *** convergence criteria satisfied after 12 iterations ***

         #    Occupation            Energy/Eh            Energy/eV
      -------------------------------------------------------------
         1        2.0000           -0.7558152             -20.5668
       ...           ...                  ...                  ...
        76        2.0000           -0.4173020             -11.3554
        77        2.0000           -0.4070286             -11.0758
        78        2.0000           -0.4033229             -10.9750
        79        2.0000           -0.4023194             -10.9477
        80        2.0000           -0.3978749             -10.8267
        81        2.0000           -0.3929933             -10.6939
        82        2.0000           -0.3639578              -9.9038 (HOMO)
        83                         -0.2948867              -8.0243 (LUMO)
        84                         -0.2552037              -6.9444
        85                         -0.2358069              -6.4166
        86                         -0.2315579              -6.3010
        87                         -0.2160477              -5.8790
       ...                                ...                  ...
       146                          0.6791465              18.4805
      -------------------------------------------------------------
                  HL-Gap            0.0690710 Eh            1.8795 eV
             Fermi-level           -0.3294223 Eh           -8.9640 eV

 SCC (total)                   0 d,  0 h,  0 min,  0.073 sec
 SCC setup                      ...        0 min,  0.000 sec (  0.634%)
 Dispersion                     ...        0 min,  0.001 sec (  0.943%)
 classical contributions        ...        0 min,  0.000 sec (  0.150%)
 integral evaluation            ...        0 min,  0.015 sec ( 20.207%)
 iterations                     ...        0 min,  0.032 sec ( 43.584%)
 molecular gradient             ...        0 min,  0.025 sec ( 33.966%)
 printout                       ...        0 min,  0.000 sec (  0.472%)

         :::::::::::::::::::::::::::::::::::::::::::::::::::::
         ::                     SUMMARY                     ::
         :::::::::::::::::::::::::::::::::::::::::::::::::::::
         :: total energy             -94.155887005295 Eh    ::
         :: gradient norm              0.000157471045 Eh/a0 ::
         :: HOMO-LUMO gap              1.879518631097 eV    ::
         ::.................................................::
         :: SCC energy               -95.262705443468 Eh    ::
         :: -> isotropic ES            0.219225153060 Eh    ::
         :: -> anisotropic ES         -0.011393934732 Eh    ::
         :: -> anisotropic XC          0.024508479817 Eh    ::
         :: -> dispersion             -0.069822649148 Eh    ::
         :: repulsion energy           1.103318158138 Eh    ::
         :: add. restraining           0.000000000000 Eh    ::
         :: total charge               0.000000000000 e     ::
         :::::::::::::::::::::::::::::::::::::::::::::::::::::

           -------------------------------------------------
          |                Property Printout                |
           -------------------------------------------------

    * Orbital Energies and Occupations

         #    Occupation            Energy/Eh            Energy/eV
      -------------------------------------------------------------
         1        2.0000           -0.7558152             -20.5668
       ...           ...                  ...                  ...
        70        2.0000           -0.4469754             -12.1628
        71        2.0000           -0.4396727             -11.9641
        72        2.0000           -0.4381630             -11.9230
        73        2.0000           -0.4321139             -11.7584
        74        2.0000           -0.4257729             -11.5859
        75        2.0000           -0.4212834             -11.4637
        76        2.0000           -0.4173020             -11.3554
        77        2.0000           -0.4070286             -11.0758
        78        2.0000           -0.4033229             -10.9750
        79        2.0000           -0.4023194             -10.9477
        80        2.0000           -0.3978749             -10.8267
        81        2.0000           -0.3929933             -10.6939
        82        2.0000           -0.3639578              -9.9038 (HOMO)
        83                         -0.2948867              -8.0243 (LUMO)
        84                         -0.2552037              -6.9444
        85                         -0.2358069              -6.4166
        86                         -0.2315579              -6.3010
        87                         -0.2160477              -5.8790
        88                         -0.2127648              -5.7896
        89                         -0.2089525              -5.6859
        90                         -0.1043649              -2.8399
        91                         -0.0134518              -0.3660
        92                         -0.0005957              -0.0162
        93                          0.0058898               0.1603
       ...                                ...                  ...
       146                          0.6791465              18.4805
      -------------------------------------------------------------
                  HL-Gap            0.0690710 Eh            1.8795 eV
             Fermi-level           -0.3294223 Eh           -8.9640 eV

     #   Z          covCN         q      C6AA      α(0)
     1   6 c        3.801     0.028    20.102     6.383
     2   6 c        3.757    -0.117    22.785     6.806
     3   6 c        2.758     0.279    22.280     7.730
     4   8 o        0.858    -0.478    23.308     6.473
     5   8 o        0.859    -0.472    23.178     6.455
     6   8 o        1.654    -0.462    22.089     6.345
     7   7 n        2.694    -0.182    24.946     7.418
     8   6 c        2.771     0.281    22.239     7.723
     9   6 c        3.784     0.020    20.261     6.412
    10   6 c        3.680     0.080    19.457     6.318
    11   7 n        2.632    -0.352    29.081     8.009
    12   7 n        2.690    -0.173    24.740     7.387
    13   6 c        3.793     0.023    20.196     6.400
    14   6 c        3.757    -0.115    22.764     6.803
    15   6 c        2.752     0.269    22.451     7.759
    16   8 o        0.858    -0.423    22.140     6.309
    17   7 n        2.692    -0.177    24.826     7.400
    18   8 o        0.856    -0.392    21.519     6.219
    19   8 o        1.709    -0.231    17.831     5.701
    20   6 c        3.791     0.024    20.179     6.397
    21   6 c        2.717     0.365    20.807     7.467
    22   6 c        3.756    -0.118    22.807     6.809
    23   1 h        0.924     0.072     2.062     2.246
    24   1 h        0.925     0.061     2.186     2.312
    25   1 h        0.925     0.056     2.245     2.343
    26   1 h        0.925     0.059     2.210     2.325
    27   1 h        0.803     0.318     0.670     1.286
    28   1 h        0.860     0.194     1.139     1.672
    29   1 h        0.924     0.040     2.450     2.448
    30   1 h        0.924     0.043     2.406     2.426
    31   1 h        0.923     0.024     2.679     2.559
    32   1 h        0.860     0.177     1.230     1.737
    33   1 h        0.860     0.145     1.438     1.878
    34   1 h        0.860     0.208     1.065     1.616
    35   1 h        0.924     0.069     2.094     2.263
    36   1 h        0.925     0.066     2.130     2.282
    37   1 h        0.925     0.066     2.135     2.285
    38   1 h        0.925     0.049     2.328     2.386
    39   1 h        0.860     0.206     1.077     1.626
    40   1 h        0.924     0.093     1.847     2.125
    41   1 h        0.925     0.061     2.192     2.315
    42   1 h        0.925     0.059     2.208     2.324
    43   1 h        0.925     0.062     2.179     2.308
    44   6 c        2.877     0.161    24.526     8.119
    45   6 c        2.969    -0.009    28.243     8.717
    46   6 c        2.914    -0.039    28.968     8.826
    47   6 c        2.923    -0.014    28.359     8.733
    48   6 c        2.916    -0.029    28.716     8.787
    49   6 c        2.923    -0.016    28.417     8.742
    50   1 h        0.926     0.068     2.108     2.270
    51   1 h        0.926     0.054     2.273     2.358
    52   1 h        0.926     0.058     2.227     2.334
    53   1 h        0.926     0.068     2.103     2.268
    54   6 c        2.768     0.223    23.295     7.904
    55   8 o        0.856    -0.367    21.038     6.150
    56   1 h        0.923     0.037     2.487     2.466

 Mol. C6AA /au·bohr⁶  :      32535.686431
 Mol. C8AA /au·bohr⁸  :     738267.941806
 Mol. α(0) /au        :        273.158626


Wiberg/Mayer (AO) data.
largest (>0.10) Wiberg bond orders for each atom

 ---------------------------------------------------------------------------
     #   Z sym  total        # sym  WBO       # sym  WBO       # sym  WBO
 ---------------------------------------------------------------------------
     1   6 c    3.969 --     2 c    0.997     7 n    0.980    23 h    0.949
                             3 c    0.934
     2   6 c    3.989 --     1 c    0.997    24 h    0.983    25 h    0.983
                            26 h    0.981
     3   6 c    3.949 --     4 o    1.599    12 n    1.316     1 c    0.934
     4   8 o    1.979 --     3 c    1.599    12 n    0.186
     5   8 o    1.987 --     8 c    1.640     7 n    0.183
     6   8 o    1.959 --    10 c    1.019    27 h    0.851
     7   7 n    3.431 --     8 c    1.261     1 c    0.980    28 h    0.928
                             5 o    0.183
     8   6 c    3.944 --     5 o    1.640     7 n    1.261     9 c    0.959
     9   6 c    3.988 --    11 n    1.033     8 c    0.959    29 h    0.959
                            10 c    0.928
    10   6 c    3.962 --     6 o    1.019    31 h    0.971    30 h    0.969
                             9 c    0.928
    11   7 n    3.009 --     9 c    1.033    33 h    0.963    32 h    0.935
    12   7 n    3.477 --     3 c    1.316    13 c    0.972    34 h    0.913
                             4 o    0.186
    13   6 c    3.961 --    14 c    1.009    12 n    0.972    35 h    0.951
                            15 c    0.914
    14   6 c    3.989 --    13 c    1.009    38 h    0.985    37 h    0.982
                            36 h    0.981
    15   6 c    3.953 --    16 o    1.691    17 n    1.270    13 c    0.914
    16   8 o    2.024 --    15 c    1.691    17 n    0.203
    17   7 n    3.459 --    15 c    1.270    20 c    0.978    39 h    0.908
                            16 o    0.203
    18   8 o    2.063 --    21 c    1.759    19 o    0.164
    19   8 o    2.374 --    21 c    1.117    44 c    0.980    18 o    0.164
    20   6 c    3.966 --    22 c    1.004    17 n    0.978    40 h    0.943
                            21 c    0.926
    21   6 c    3.909 --    18 o    1.759    19 o    1.117    20 c    0.926
    22   6 c    3.988 --    20 c    1.004    42 h    0.984    41 h    0.982
                            43 h    0.982
    23   1 h    0.995 --     1 c    0.949
    24   1 h    0.996 --     2 c    0.983
    25   1 h    0.996 --     2 c    0.983
    26   1 h    0.996 --     2 c    0.981
    27   1 h    0.899 --     6 o    0.851
    28   1 h    0.962 --     7 n    0.928
    29   1 h    0.998 --     9 c    0.959
    30   1 h    0.998 --    10 c    0.969
    31   1 h    0.999 --    10 c    0.971
    32   1 h    0.969 --    11 n    0.935
    33   1 h    0.978 --    11 n    0.963
    34   1 h    0.956 --    12 n    0.913
    35   1 h    0.995 --    13 c    0.951
    36   1 h    0.995 --    14 c    0.981
    37   1 h    0.996 --    14 c    0.982
    38   1 h    0.997 --    14 c    0.985
    39   1 h    0.958 --    17 n    0.908
    40   1 h    0.991 --    20 c    0.943
    41   1 h    0.996 --    22 c    0.982
    42   1 h    0.996 --    22 c    0.984
    43   1 h    0.996 --    22 c    0.982
    44   6 c    3.921 --    46 c    1.417    45 c    1.309    19 o    0.980
    45   6 c    3.988 --    47 c    1.381    44 c    1.309    54 c    1.070
    46   6 c    3.988 --    49 c    1.425    44 c    1.417    50 h    0.965
                            47 c    0.101
    47   6 c    3.986 --    48 c    1.452    45 c    1.381    53 h    0.965
                            46 c    0.101
    48   6 c    3.990 --    47 c    1.452    49 c    1.432    51 h    0.969
    49   6 c    3.988 --    48 c    1.432    46 c    1.425    52 h    0.969
    50   1 h    0.995 --    46 c    0.965
    51   1 h    0.997 --    48 c    0.969
    52   1 h    0.996 --    49 c    0.969
    53   1 h    0.994 --    47 c    0.965
    54   6 c    3.916 --    55 o    1.827    45 c    1.070    56 h    0.930
    55   8 o    2.056 --    54 c    1.827
    56   1 h    0.998 --    54 c    0.930
 ---------------------------------------------------------------------------

Topologies differ in total number of bonds
Writing topology from bond orders to xtbtopo.mol

molecular dipole:
                 x           y           z       tot (Debye)
 q only:        0.720      -0.349       0.466
   full:        0.655      -0.426       0.192       2.045
molecular quadrupole (traceless):
                xx          xy          yy          xz          yz          zz
 q only:        2.291       5.297      13.197       9.607      -5.083     -15.489
  q+dip:        0.512       4.021      14.855      10.004      -7.462     -15.368
   full:       -1.067       3.860      15.806       9.536      -5.571     -14.739


           -------------------------------------------------
          | TOTAL ENERGY              -94.155887005295 Eh   |
          | GRADIENT NORM               0.000157471045 Eh/α |
          | HOMO-LUMO GAP               1.879518631097 eV   |
           -------------------------------------------------
           ------------------------------------------------- 
          |                  Meta Dynamics                  |
           ------------------------------------------------- 
 trajectories on xtb.trj or xtb.trj.<n>
 
 MD time /ps        :   14.00
 dt /fs             :    5.00
 SCC accuracy       :    2.00
 temperature /K     :  300.00
 max steps          :  2800
 block length (av.) :  1000
 dumpstep(trj) /fs  :  100.00    20
 dumpstep(coords)/fs: 1000.00   200
 H atoms mass (amu) :     2
 # deg. of freedom  :   112
 SHAKE on. # bonds  :          56  all: T
 Berendsen THERMOSTAT on
 --- metadynamics parameter ---
 kpush  :    0.168
 alpha  :    1.300
 update :      14
         time (ps)    <Epot>      Ekin   <T>   T     Etot
      0    0.00      0.00000   0.1273    0.    0.   -94.02606
est. speed in wall clock h for 100 ps :  0.36
    200    1.00    -93.62258   0.0533  337.  300.   -94.03206
  adding snapshot to metadynamics bias
    400    2.00    -93.85098   0.0572  342.  322.   -94.02482
  adding snapshot to metadynamics bias
    600    3.00    -93.92708   0.0560  348.  316.   -94.02509
  adding snapshot to metadynamics bias
    800    4.00    -93.96581   0.0466  353.  263.   -94.02580
  adding snapshot to metadynamics bias
block <Epot> / <T> :     -94.08102  350.     drift:  0.99D+02   Tbath : 300.
   1000    5.00    -93.98703   0.0520  350.  293.   -94.01660
  adding snapshot to metadynamics bias
   1200    6.00    -94.00097   0.0618  352.  348.   -94.01536
  adding snapshot to metadynamics bias
   1400    7.00    -94.01057   0.0595  354.  336.   -94.01499
  adding snapshot to metadynamics bias
   1600    8.00    -94.01759   0.0641  354.  361.   -94.01655
  adding snapshot to metadynamics bias
