56
 energy: -94.153367194863 gnorm: 0.000156866377 xtb: 6.4.0 (d4b70c2)
c         0.96554716999974   -2.74177403999975    0.17727162000002
c         1.16832473000018   -4.23932533000001   -0.00732709000009
c        -0.46061281000015   -2.35403843000006   -0.23247500999993
o        -0.76651547000013   -2.21196530999986   -1.41317611000005
o         0.78974222000022   -0.08232139999975   -0.23277365000020
o         1.13933489000016   -1.67997875000005   -3.47719251999990
n         1.87833775000024   -1.99667252000018   -0.67016258000001
c         1.62665881000004   -0.68879063999998   -0.88332230000005
c         2.37922721999985   -0.08253094999992   -2.04904987999982
c         1.46157352000017   -0.33046621999991   -3.28822829999975
n         2.66627241999974    1.31187143000019   -1.80260605999978
n        -1.33469471000015   -2.24546139999986    0.76859922000021
c        -2.73149367999982   -1.90189817000006    0.56162553000010
c        -3.56891233999997   -2.45022377999994    1.70579585000026
c        -2.90516107999983   -0.36998390999976    0.44567554999984
o        -3.52031218999983    0.28546418999994    1.25867307000022
n        -2.33310336000025    0.14155747000007   -0.65984389999975
o        -0.12435088000003    2.47852208999980   -1.42526253999986
o        -0.74487029000024    2.09218530999977    0.71258858999994
c        -2.31928166999980    1.56416543000019   -0.93812610999987
c        -0.92534579000004    2.10978061999980   -0.61017734999978
c        -2.68748764000025    1.83544721999977   -2.38973752999977
h         1.13595318000016   -2.44910077999997    1.21971923000010
h         0.95804688999974   -4.51991736000002   -1.03782475000005
h         0.49839099000004   -4.78977758999985    0.64786629000004
h         2.19326217999990   -4.50971496000007    0.23480977000026
h         0.44076954000011   -1.93833372999997   -2.84620459000008
h         2.40667669000014   -2.50954704999985   -1.36001871000015
h         3.32503996999977   -0.61673320999980   -2.19997117999999
h         1.99583327000015   -0.00862597000007   -4.18793456000020
h         0.56381566999979    0.29166647000004   -3.17294626000024
h         1.81710516000007    1.78003880000006   -1.49465940000000
h         2.96744853000006    1.76219508000006   -2.66061170000012
h        -0.99018959999988   -2.21185341000025    1.71986703000014
h        -3.03182981000008   -2.34691827000014   -0.39498053999977
h        -4.61736501999986   -2.22765621999982    1.53113047000019
h        -3.27527027000016   -1.97537407000008    2.63888434999983
h        -3.44003035000001   -3.52618875000004    1.79034292000024
h        -1.76995086999990   -0.46097822999995   -1.24883763999995
h        -3.03797923000001    2.01625060999982   -0.24373634000014
h        -2.70025139999993    2.90535559000015   -2.57711561000004
h        -3.66832728000007    1.42247481000020   -2.60820543000005
h        -1.95399454999982    1.38066160999975   -3.05122923999977
c         0.51722359000018    2.23847331999974    1.26055915999984
c         0.94182573999997    1.24207740000020    2.15356321000010
c         1.35182380000023    3.29404990999991    0.93955873000014
c         2.21983145999983    1.32383645000026    2.69986159999995
c         3.04958205999986    2.38213519999983    2.38473633000010
c         2.61435277999983    3.36264490999989    1.50796419000002
h         1.02288834000024    4.04841453999992    0.24236526999977
h         4.03869646000010    2.44036060000025    2.81264321000020
h         3.26398492000011    4.18573378000004    1.25238262000009
h         2.53920017000005    0.54118575999993    3.37183802000003
c         0.06254597999988    0.10514940999985    2.41603171999990
o         0.40688003000009   -0.97371238999989    2.84721420000026
h        -0.99395227999993    0.30077797999989    2.17213985000023
56
 energy: -94.091444045306 gnorm: 0.098824064487 xtb: 6.4.0 (d4b70c2)
c         0.92542456295002   -2.63256225808628    0.22363036772680
c         1.12390183576913   -4.13575035620090    0.36106255320984
c        -0.49938653442076   -2.31977363054720   -0.24990961089123
o        -0.80950028771189   -2.33159736976224   -1.43797777422885
o         0.83478584220175   -0.12312058007330   -0.24902495381854
o         0.99686254648184   -1.32474216591320   -3.68617336841939
n         1.85397238224281   -2.04604326503236   -0.72521211776130
c         1.63855706376002   -0.73168423549993   -0.93826363914271
c         2.35788572850680   -0.06313156742758   -2.09084093274016
c         1.23900592630357   -0.04173031790867   -3.18023220450852
n         2.75826432852145    1.25544693578873   -1.65663452032687
n        -1.39637666093590   -2.11671511803240    0.71556111087082
c        -2.81494124818063   -1.90759642024072    0.47920321247879
c        -3.69345069091414   -2.58768761529996    1.51687071383856
c        -3.03126083813194   -0.37733283600033    0.43601428388796
o        -3.57496421799279    0.30083834214626    1.28067905293030
n        -2.54373186345717    0.10382487909390   -0.72239007158225
o        -0.13647164233426    2.45948324055241   -1.31269702738085
o        -0.76609604748178    1.92857059753251    0.78200910198681
c        -2.29259893746508    1.49613421747772   -1.03838442510854
c        -0.94285791914008    2.02169394418837   -0.53809471752349
c        -2.36418191232731    1.67833728584020   -2.54769655554898
h         1.16398665815262   -2.10722314046157    1.15556373747175
h         0.48710468571238   -4.60038911009422   -0.38958670121992
h         0.80994287466059   -4.31629826130118    1.38571834748347
h         2.18986813625113   -4.34788528524661    0.33020471692316
h         0.61080455676535   -1.91800778433829   -3.01395186749395
h         2.19193150717707   -2.56070662483379   -1.52458002809235
h         3.29296029289995   -0.60294782589984   -2.28305180129479
h         1.58111352854167    0.62702934107094   -3.97660453475358
h         0.34162805797448    0.44311895808485   -2.77287200632776
h         1.96134779682728    1.69650795669032   -1.20332879057607
h         3.32699955290672    1.88831405266690   -2.20952833861537
h        -0.98936698870367   -1.84530336831635    1.60179048675234
h        -2.90003412522854   -2.34931359373831   -0.52128916690955
h        -4.37821691190099   -3.22792978980095    0.96870785656878
h        -4.35136185833890   -1.88833078198573    2.02717942304807
h        -3.10624774048330   -3.23936112486508    2.15872250756684
h        -2.08965862025135   -0.55486850188879   -1.34451879973706
h        -3.11788048490506    2.07198667896609   -0.60204891428690
h        -1.60043892107805    0.99683416751449   -2.91132758458778
h        -2.13437893913726    2.67967559842100   -2.90101371823210
h        -3.33169335992467    1.30437973509974   -2.87402568364034
c         0.48248726181549    2.15732749483417    1.33270232894902
c         1.06384998488305    1.22300781680954    2.20425976688958
c         1.28400812132357    3.20989879000208    0.92835241031012
c         2.37304907919024    1.36298016122825    2.65684203998157
c         3.13949753731392    2.38896435434888    2.13944517681729
c         2.57860211346598    3.40578966143744    1.38378924770056
h         0.90140757614173    3.92184997888675    0.21414961019944
h         4.18567399442313    2.34776507475948    2.40147431138672
h         2.97649112617929    4.37112431559791    1.11059971754311
h         2.73453733071629    0.52860086743387    3.23927510534411
c         0.25148344199110    0.10712445331890    2.68331398420802
o         0.61650888531805   -0.98775677840955    3.05266290291869
h        -0.82194288139149    0.32865034253534    2.79567329577006
56
 energy: -94.075862149468 gnorm: 0.110637388482 xtb: 6.4.0 (d4b70c2)
c         0.87551648833522   -2.61622519226737    0.41340281994333
c         1.30480701087501   -4.06789942916016    0.57528811161176
c        -0.53869354628785   -2.46253773453641   -0.15979316712469
o        -0.73726139155698   -2.22592694110900   -1.34823855597172
o         0.78332088783686   -0.02025285173261   -0.23265412041567
o         0.50371808827721   -0.85966047456543   -3.76886715763077
n         1.72412940112298   -2.01138028462750   -0.59680824948679
c         1.52390106826702   -0.71504647627477   -0.91107189749755
c         2.29081404626618   -0.17678715407353   -2.10058953160764
c         1.33375493169505    0.16032134987399   -3.28782121765103
n         3.02057364604198    0.97356102669600   -1.61930220511388
n        -1.50251425984190   -2.50015851861217    0.76085446696866
c        -2.84048767433919   -2.03134669114665    0.44153678449685
c        -3.84881908192992   -2.51020765479332    1.47353322976748
c        -2.91065491426903   -0.50099344899795    0.23306235451458
o        -3.56874733110621    0.16348316775426    1.00401843077307
n        -2.13845903481653   -0.00629072502396   -0.75186435534844
o        -0.06458876419447    2.47033520027479   -1.35678042880155
o        -0.73598875841505    1.95682125816166    0.78593209079528
c        -2.17192320111197    1.42589486583823   -0.97360753398307
c        -0.82857829598664    2.02536086616357   -0.54422590279510
c        -2.50650813942644    1.76639741677272   -2.41875669944975
h         0.98768838310000   -1.98868592734023    1.30503323841792
h         1.34522016648746   -4.52612793385343   -0.41125509535810
h         0.57566682124945   -4.64369028680888    1.13912030670023
h         2.34835241649673   -4.13094056471297    0.87407965995421
h         0.12456312411925   -1.36161645444465   -3.02243007443306
h         2.09501409008413   -2.52580810779368   -1.38159634953144
h         3.18833935693683   -0.76749549832276   -2.32018693750312
h         1.90493055476731    0.56785423896408   -4.12815527824172
h         0.69467516436223    0.99585336585219   -2.97195496212840
h         2.32590468826401    1.52433659676549   -1.12012470384240
h         3.11867112367396    1.55675856828922   -2.44388066086272
h        -1.26971205433182   -2.95536390993793    1.63453341326891
h        -2.96099375693063   -2.38796445021824   -0.58882330517473
h        -3.42032518142153   -3.03402382955531    2.32283113356265
h        -4.52724759226887   -3.15589541435860    0.92109849566946
h        -4.51373093314052   -1.67886406138794    1.69312250955972
h        -1.62887166529180   -0.56370696937624   -1.42766867071787
h        -2.95280360086139    1.81517765683978   -0.30895042905585
h        -3.37951928090390    2.40477216690077   -2.52027816310483
h        -2.80188410216116    0.86390245064558   -2.94656036942145
h        -1.61030340589780    2.14238415037298   -2.90647014159405
c         0.46795056508407    2.20842273694141    1.41979310910337
c         1.05653617794124    1.20515621581552    2.20565026374947
c         1.17580203095097    3.30982942568065    0.97292574055233
c         2.39300057692813    1.39494918562678    2.54662937219653
c         3.13388641106783    2.45595607991039    2.06378482567249
c         2.52832335623843    3.40862137368912    1.26049441949122
h         0.65632125349245    4.04885715219081    0.38358624694847
h         4.19585348987162    2.59574552164178    2.19617310876144
h         3.20167292887356    4.17665007997677    0.91185214854666
h         2.90519006239819    0.61265117430237    3.08677989097501
c         0.30449205591907    0.00469182950251    2.56334132497945
o         0.66497668866339   -0.91131688299375    3.27002793716601
h        -0.70914540423058   -0.14725079379023    2.15911992575270
56
 energy: -94.077085859880 gnorm: 0.120095312247 xtb: 6.4.0 (d4b70c2)
c         0.90974044017088   -2.62970667846725    0.44732028499310
c         1.28513279402973   -4.03579579671859    0.89436531997928
c        -0.48854189646067   -2.63422988477997   -0.18271903589123
o        -0.66290420828681   -2.68798040823604   -1.39701923173817
o         0.58173928118618   -0.25166649026589   -0.45025463518470
o         0.23144304383489   -0.26784946186224   -3.43114033974922
n         1.86417255086102   -2.09792639731651   -0.50807320580373
c         1.46839869828660   -0.89968815004319   -0.98443706758369
c         2.29324295673194   -0.33091301123906   -2.11975975574415
c         1.26123335368783    0.52912209073865   -2.91626410029945
n         3.49407646415178    0.37738619850291   -1.74055187331200
n        -1.50706857648142   -2.38542447074618    0.64108739005459
c        -2.85802808859815   -2.10665259399100    0.18379556883619
c        -3.78986102714349   -2.92583167492038    1.06225428951827
c        -3.08610222257604   -0.57986306803013    0.26901302759484
o        -3.80120590548493   -0.03297153825119    1.08050822702579
n        -2.33185695652632    0.06787049707149   -0.63798928920422
o        -0.28644616789771    2.65373883414976   -1.43434099547923
o        -0.67706888315124    2.10434997004941    0.72419062314355
c        -2.31771968063505    1.49806742713810   -0.87417215699823
c        -0.97039605194037    2.16489776593136   -0.57691811350999
c        -2.69294025255035    1.89363724113315   -2.29511523464149
h         0.91683159251211   -1.87352838719927    1.24075394573315
h         1.42474374248369   -4.89151090554418    0.23623575758785
h         0.46415092725125   -4.28395320030974    1.56181865129682
h         2.05671917708091   -4.04997668143165    1.66032285397658
h        -0.10820087773555   -0.95999780174221   -2.83242563817124
h         2.44667348037295   -2.72266736854450   -1.04517206631749
h         2.67416070907234   -1.18689996983625   -2.68975891755687
h         1.72693447034066    0.94249910834078   -3.81666839430141
h         0.93798529456152    1.37283108086989   -2.29178509960919
h         3.18521895288169    1.24967701187806   -1.31768943478787
h         4.22469445866678    0.54355405325975   -2.42484545615447
h        -1.35861671649828   -2.23765060113860    1.63146542183790
h        -2.80293196366290   -2.40734378761024   -0.86971716568541
h        -4.57090251275559   -2.45260265671996    1.64989859705315
h        -3.13692765001506   -3.59607062471872    1.61616747547632
h        -4.41737362288099   -3.42649782202322    0.32943729774085
h        -1.58124055843477   -0.41952229938158   -1.11351733098696
h        -3.00621633767998    1.93845087762808   -0.14265378194862
h        -1.81684599407504    2.26458014803428   -2.81936478706928
h        -3.58057711650945    2.51553248617430   -2.37040096538915
h        -2.93681928998807    0.99215229209978   -2.85212623341808
c         0.62379088564192    2.25723510310547    1.17022091002806
c         1.17856170262078    1.29224311899013    2.02553842029412
c         1.36727430346794    3.39161280829261    0.89771312561998
c         2.51111945843178    1.42858917766379    2.40517615517842
c         3.23439350333148    2.58065129887973    2.16556430469547
c         2.63023430290366    3.59008578084132    1.43372624283913
h         0.84951365765722    4.18067551272990    0.37555676411027
h         4.21585073510170    2.61470742162795    2.61325136936897
h         3.11437080225327    4.53992925261761    1.26571312351347
h         2.98300227566002    0.72582672148380    3.07565536753383
c         0.38692342672298    0.17920836512692    2.54427775157680
o         0.77942432212527   -0.82741227531287    3.09298991509806
h        -0.69895090537136    0.31927514466348    2.42098689845606
56
 energy: -94.089312131592 gnorm: 0.117631688371 xtb: 6.4.0 (d4b70c2)
c         0.96488390105533   -2.74485653008572    0.71413448728635
c         1.44454855950446   -4.16441423229631    0.98363966122598
c        -0.40117681293220   -2.76560226892999    0.01727636465889
o        -0.34610940262242   -2.99862002655484   -1.18708512954709
o         0.57407136949379   -0.32455239978972   -0.59802712052875
o         0.44983445720082    0.58868485215388   -3.34270229201099
n         1.81710063497678   -2.14380896990329   -0.29530898077986
c         1.45982973110184   -1.05730173608254   -1.01028723533211
c         2.25202439294586   -0.70934070618641   -2.25293825610672
c         1.76895490579748    0.63898213208362   -2.87566834632797
n         3.66826030146598   -0.86033375015261   -2.01011227878921
n        -1.48441233221732   -2.41121799329722    0.70935321013686
c        -2.74317182592885   -2.13394636446500    0.03811095951198
c        -3.91128016638697   -3.01009195289156    0.46113404694859
c        -3.10730610827551   -0.63400048248163    0.12718768331206
o        -4.10636006977513   -0.26919842826803    0.70839223052182
n        -2.22100215783849    0.22190793180506   -0.41409227147689
o        -0.75478732645753    3.11264257379094   -1.21141028025212
o        -0.73643333483078    2.11303552651698    0.82505056341893
c        -2.54693731781693    1.62459989538550   -0.58042623996197
c        -1.25009919820554    2.41345669925153   -0.37014201611924
c        -3.16602986110469    1.96937801957716   -1.92734778672248
h         0.92160031590487   -1.98794726348995    1.50572008725640
h         1.28017302033200   -4.80823368845924    0.12146144558166
h         0.93454988184018   -4.68371431759802    1.79068119853794
h         2.52630262862501   -4.08419637315203    1.05854504892711
h        -0.07720337472258    0.60890500587351   -2.52129564429146
h         2.66915550996561   -2.56374085594205   -0.63551994855069
h         2.07555574812192   -1.41513437253207   -3.07356312241754
h         2.27679739257092    0.79899559336405   -3.83221300434554
h         1.97413775220060    1.48943248607315   -2.21163341822911
h         3.92760707917183   -0.32477019216899   -1.18488031629777
h         4.24399208027977   -0.58375237409599   -2.79859676123756
h        -1.27557609463088   -1.98615020994167    1.60401992181759
h        -2.46027428788542   -2.17271938784450   -1.02104223756682
h        -4.31742056663478   -2.66490934107674    1.40728217380160
h        -3.56785549207632   -4.00984409327065    0.71592261512407
h        -4.58450816118978   -3.21020898562524   -0.36843007582899
h        -1.26695388518540   -0.02026250669449   -0.65544057912867
h        -3.28830355293057    1.84288182111703    0.19791396133607
h        -3.87041486021225    1.18490033056297   -2.18890831832537
h        -2.40732464892380    1.94931630794711   -2.70470534111289
h        -3.72743588485941    2.89819606905913   -1.86001533958156
c         0.60405117006378    2.29520851578734    1.11568315127959
c         1.17237585818361    1.45996806479684    2.09032598499257
c         1.31823236068334    3.39746035207575    0.68114089957852
c         2.46254699769607    1.75919918862060    2.51967943683003
c         3.22986369831879    2.80417648916473    2.04319876081962
c         2.63239812722995    3.59548124188896    1.07550824368606
h         0.85549251003747    4.06334129011405   -0.03006772612245
h         4.19816332611888    3.05988490629271    2.44550568552907
h         3.05634269790585    4.43068015588458    0.53928725426491
h         2.76234901528984    1.06670426371731    3.29211736921324
c         0.46169409283155    0.27599675770923    2.56757997964839
o         0.95133504072014   -0.73016855096242    3.03267159833363
h        -0.60358873540349    0.38052608529868    2.30645068205049
56
 energy: -94.091476205037 gnorm: 0.116995155929 xtb: 6.4.0 (d4b70c2)
c         0.97528608027197   -2.85217570511298    0.62332197434487
c         1.53087754545445   -4.26765345318412    0.69812946625531
c        -0.37921129736941   -2.89600371050103   -0.09471664706883
o        -0.45439188704392   -3.57617079943741   -1.11429347731367
o         0.43458126493328   -0.36817537290099   -0.84965426433654
o         1.47661416751189    1.32860145120671   -2.95161655192024
n         1.84048142234916   -2.07750311549345   -0.24721064681482
c         1.40211539483728   -1.08600500002284   -1.04976973094473
c         2.26547585582539   -0.92925905706087   -2.28381601902590
c         2.59184255782386    0.56988668004751   -2.57565536548988
n         3.44862499370289   -1.75712824375641   -2.23608521938893
n        -1.40209609492232   -2.19789202628926    0.39955507100940
c        -2.74214690299868   -2.15377547587595   -0.16101494097423
c        -3.57530234664195   -3.17341354832230    0.59875273788867
c        -3.32960551437503   -0.73238663136387   -0.00317888534866
o        -4.47211582641762   -0.42554431040421    0.26046113540314
n        -2.41840179030746    0.21903127561483   -0.27815095243730
o        -1.28668482013948    3.47200855946617   -0.91401234663013
o        -0.65468743656353    1.97561073604083    0.70801676617717
c        -2.71350437182701    1.63793727700586   -0.31079595403279
c        -1.45577433986796    2.50842709473828   -0.21770312398509
c        -3.56628173612535    2.01023363947482   -1.51516773033370
h         0.87467569848685   -2.32504940695577    1.57904593285531
h         1.75410391999698   -4.77978554870597   -0.23608934529177
h         0.70535423160708   -4.64199395213877    1.29768573646770
h         2.39348659690762   -4.19257742448717    1.35578195975773
h         0.89839083499401    1.24538901404004   -2.16955512224026
h         2.59304188451665   -2.55927807027664   -0.71585704263599
h         1.68271285735727   -1.23793264686005   -3.16006881068057
h         3.25233811083112    0.67356137559762   -3.44253665124928
h         3.05046922195418    0.92603841214073   -1.64338624289396
h         4.30615831735925   -1.22910271620774   -2.09143907001862
h         3.55242171539041   -2.10289957967467   -3.18442088846462
h        -1.23850134265091   -1.60682833923841    1.20491473837819
h        -2.62321198616119   -2.46813862505314   -1.20522284996264
h        -3.20368451553000   -3.40224657384283    1.59315354845667
h        -3.58836794793884   -4.08057360378794   -0.00062359364980
h        -4.55555810270105   -2.80649918978152    0.89189417044285
h        -1.51722192727802   -0.05881920660659   -0.64933500234411
h        -3.32336702075832    1.83345786926825    0.57966662890758
h        -3.75781239860467    3.07794166185030   -1.57255212269325
h        -4.50114619536109    1.46820051695626   -1.40314373273235
h        -3.04994422658507    1.63192995415650   -2.39419858828584
c         0.60577547856063    2.41772078619984    1.06902224034292
c         1.21150302652358    1.61274806614786    2.04660152909760
c         1.23384704921122    3.55551070397965    0.59489033721018
c         2.51687590670512    1.88366633380054    2.44788714285072
c         3.17658864767132    2.92456795580570    1.82411698439368
c         2.58764956529800    3.71254810709150    0.84851907047492
h         0.78393264393926    4.22371073541302   -0.12234675839941
h         4.20965818347284    3.18554818424461    1.99586817953153
h         3.21605657721392    4.41918437341734    0.32833738239706
h         3.06448718751582    1.25883715454066    3.13767059658597
c         0.47230115874413    0.52352713735689    2.68048350566433
o         0.87089156987996   -0.28717896506316    3.48813961965649
h        -0.58231932198070    0.61818397488082    2.37592133663765
56
 energy: -94.105198868201 gnorm: 0.101996418074 xtb: 6.4.0 (d4b70c2)
c         0.89812081566891   -2.74362408399290    0.38428494174627
c         1.50982424634413   -4.01409970734511    0.95836324470960
c        -0.49549417222935   -2.96816697450333   -0.21536600939007
o        -0.65833655416122   -3.84627187126584   -1.05811772678027
o         0.80327025487481   -0.30084067293411   -0.88138548792011
o         2.56824155980677    1.57525748134977   -2.12254117373549
n         1.67780964501208   -2.38566651376722   -0.78638125887221
c         1.58331421836035   -1.14207500656037   -1.30007878430463
c         2.52147391116268   -0.87880404620992   -2.45911959844992
c         3.33876017462395    0.40610039197083   -2.11243946183499
n         3.35640710506649   -1.99185932528622   -2.84832649590297
n        -1.41595009815480   -2.16122782722542    0.31337577327642
c        -2.82418480757930   -2.15940518238620   -0.04550146052460
c        -3.62168446682884   -3.12633868385933    0.81478373793834
c        -3.46459849734076   -0.75286068282769   -0.08873314520786
o        -4.64389489680443   -0.56352046799976    0.11717551777185
n        -2.57816761796930    0.23016754743427   -0.33161933898463
o        -1.69865210646727    3.67355035879882   -0.38334515850417
o        -0.80283729609280    1.86396359365782    0.66814499934667
c        -2.95728454596464    1.62254021859335   -0.19372743231781
c        -1.75337944782630    2.54529900773173    0.02406232015877
c        -3.81381441425381    2.08826867235494   -1.36240137618902
h         0.90644814900858   -1.82146765310376    0.97669615198305
h         1.36098544381950   -4.85299439666020    0.28088498164081
h         1.07176517840459   -4.36863565910871    1.88760798369328
h         2.55050971815438   -3.77315394154676    1.16123383160001
h         1.80748004996966    1.48394357369192   -1.51773516585262
h         2.27609683047807   -2.94256277070309   -1.37799160665687
h         1.93488353785503   -0.49102252844167   -3.30069447955416
h         4.11840195227776    0.63103901151602   -2.84731856582009
h         3.82053882333655    0.24451967097945   -1.13874074332866
h         4.17799724126198   -2.04288880189362   -2.25042808649260
h         3.64278704056028   -2.04700765515726   -3.82024074711455
h        -1.10175225621299   -1.73063845339597    1.17395478186388
h        -2.84361499185461   -2.48785362512934   -1.09196405043381
h        -3.46313796011992   -2.88631250587080    1.86194551052630
h        -3.38894711242084   -4.18494188136379    0.72786619142781
h        -4.65141344910076   -2.96872337532242    0.50450155800963
h        -1.65623847255484    0.03428751852725   -0.70415296836449
h        -3.61970536329232    1.63754995135254    0.68037653047256
h        -3.52802932977601    1.51939318841572   -2.24256326691886
h        -3.61312949995365    3.13618740814820   -1.56712735957614
h        -4.87153647139303    1.97076862040564   -1.13917247757719
c         0.50317146455194    2.25824895885825    0.89930121473021
c         1.17656297459592    1.61297028022633    1.94844731639377
c         1.09776763100375    3.27932755319950    0.17979111943482
c         2.42360409285758    2.09562065102224    2.33621308725538
c         3.05901128685145    3.08768652820736    1.61520732860057
c         2.37379246502820    3.66618343932534    0.55909665670428
h         0.53489658343794    3.81924400428927   -0.56519862700087
h         4.10480785608615    3.30054285105980    1.77596661373042
h         2.89875857769522    4.41175705847651   -0.01826781723389
h         2.94472910036578    1.64302931421666    3.16668322060143
c         0.59925688037372    0.56505511155698    2.78702915093206
o         1.14039721153892   -0.04043835596170    3.68645780851723
h        -0.43997556771154    0.30730358349927    2.52721677270257
56
 energy: -94.090256395234 gnorm: 0.108882367715 xtb: 6.4.0 (d4b70c2)
c         0.78039114964138   -2.57317594749655    0.11208502219948
c         1.44948648100606   -3.73180627500888    0.83854389378048
c        -0.67478384507756   -2.90615453912281   -0.23970253981971
o        -0.95191351279745   -3.82647449568136   -1.00391888609832
o         1.28634375362243   -0.06854293582345   -0.86597756995752
o         3.61471761547439    1.30569665019934   -1.23367051882346
n         1.51095569351899   -2.32519946927411   -1.11726063973650
c         1.79347753169956   -1.03861784882388   -1.40747351506932
c         2.80944005176178   -0.66884952652847   -2.46762556110233
c         4.01229140670427    0.11324374236583   -1.85069598260342
n         3.30734325637597   -1.83407334751352   -3.16176772719800
n        -1.62005235352052   -2.21473690678204    0.39776656724979
c        -3.01504198570491   -2.28337621423271   -0.00374774394656
c        -3.79251830352664   -3.14887328828455    0.97477262067907
c        -3.54670869991099   -0.83186977211588    0.02498608568562
o        -4.66776925933084   -0.55624221883994    0.39409413481798
n        -2.70220006533400    0.13093577023549   -0.38842478161462
o        -1.98135426488138    3.58436299171672    0.30696044358554
o        -0.90380558936602    1.64284410724943    0.62550900508621
c        -3.09336869716708    1.52345254818587   -0.29183497703779
c        -1.94625378873613    2.38563137265771    0.24582540587612
c        -3.75062395434350    2.12447928121092   -1.52598552770877
h         0.78284289838156   -1.63487895020033    0.67864093281825
h         1.41947401755506   -4.72977490136837    0.40491737501132
h         0.98224246066331   -3.78786269414732    1.81814992446770
h         2.52655024311489   -3.58459702613335    0.86091970880129
h         2.76834767007028    1.14283675512782   -0.77538983864760
h         2.01181550068349   -3.01340177488257   -1.65911010212686
h         2.33033732708950    0.03511471458838   -3.15871598797558
h         4.73117001625781    0.29481777860755   -2.65613399724373
h         4.53074702906596   -0.49558332047221   -1.09780716927820
h         3.70175417674140   -2.47922633064924   -2.48109561708373
h         3.95472115774504   -1.64522107046213   -3.91999512553323
h        -1.33726650852350   -1.53575026716769    1.09327575171028
h        -2.97342442211880   -2.77754663814666   -0.98221768674758
h        -4.10210086960681   -2.49730292804338    1.78650659023611
h        -3.05073941430020   -3.87355698846759    1.30181952256775
h        -4.60900460790951   -3.70582388538329    0.52242812844889
h        -1.76229852709107   -0.04234159333022   -0.72556523701131
h        -3.91004437635008    1.51145500618610    0.44027243050100
h        -4.79722863798857    2.36074069496597   -1.35634896021518
h        -3.56704742806511    1.51828934239264   -2.40868267657239
h        -3.29856963270349    3.08547979755347   -1.75951978501580
c         0.37412918510452    2.13889244269639    0.81358284624039
c         1.16846847424867    1.70847602235108    1.88797337593300
c         0.90080263089802    3.05273876066664   -0.08159358164713
c         2.42485748056257    2.27064626155065    2.09744056359965