47
 energy: -63.126377726019 gnorm: 0.000497895246 xtb: 6.4.0 (d4b70c2)
C         5.03820022490672   -5.98864871086190   -0.05113735657673
C         4.52334331828208   -6.39003323637820    1.34105632357562
C         4.95734450055606   -5.39411061226529    2.42842706197150
H         4.88107863538561   -7.38984693075365    1.59580812340410
H         3.43442923630197   -6.42073957340355    1.31917101176508
C         4.49890252757721   -4.02832739082269    2.03915147166766
H         6.04288232868247   -5.40577611893339    2.52970303548462
H         4.52536120350503   -5.69907796712712    3.38446852548444
C         6.35353426703019   -6.69235462469963   -0.37291938384568
H         7.08993100328839   -6.49240604836001    0.40192943190420
H         6.75555002633039   -6.34520204859909   -1.32201990786883
H         6.20545507208154   -7.76889849772584   -0.43721824548372
C         3.98486868080276   -6.29339393230766   -1.12515192895997
H         5.21146998749118   -4.91040804217299   -0.06370364805474
C         2.71915265878143   -5.49329248398142   -0.98406724863025
H         3.74509313079241   -7.35812937726095   -1.09729268745867
H         4.42254658028926   -6.07872637826025   -2.10439587027632
C         2.63182679201072   -4.17088172279543   -1.02612249147293
C         1.31221720832757   -3.44909518435729   -1.12030721350419
C         3.23083331107000   -3.60104930266290    1.96999246905864
C         3.02428200978074   -2.28669133647093    1.31353379028757
C         2.05861097987687   -4.37776802357278    2.48815780319573
H         1.43448075416038   -3.74750604635288    3.12050248803843
H         2.39624104325942   -5.21906527690295    3.08629050523432
H         1.44828520480099   -4.76000433872693    1.67158067059071
O         3.94803958692505   -1.53995185617490    1.07303015158350
C         1.60499614688957   -1.89966155325131    0.93254267374257
C         1.31361747688250   -2.01456451418525   -0.57016789657009
H         1.50046074011165   -0.84522832109115    1.19753116826122
H         0.85617750858013   -2.48169556670510    1.46218509171762
S        -0.47128281710305   -1.42866664317839   -0.78131913415538
C        -0.27988211219213    0.32899688539786   -0.36414536431004
H         0.75263154297902    0.61191505484407   -0.55045624092835
H        -0.54590559229642    0.49422519330845    0.67671173763719
H        -0.94783554285858    0.88977844651888   -1.01077248904794
O         2.17242423832127   -1.17749003165860   -1.25539620546042
C         1.05457326069952   -3.37763948462008   -2.60398456238852
C         1.41182919825858   -2.31279545438672   -3.30001120764021
C         1.98621460394146   -1.09260149358251   -2.65834029994838
H         5.25792525063493   -3.34411726141830    1.68132191113376
H         1.26376267788463   -2.24409172002076   -4.36675977298839
H         2.97606442297763   -0.86724757092225   -3.06998840544161
H         1.32589026533046   -0.23866877097003   -2.88422048077182
H         0.51640450136851   -4.01859688570128   -0.63109447833784
H         0.62837249277097   -4.25171598627087   -3.07013347804146
H         1.80677564771633   -6.06944965100734   -0.88452144585479
H         3.50624581680612   -3.54891960916918   -1.15420800172040
