[Molden Format]
[Geometries] (XYZ)
12

C        1.332993       1.269721      -2.394440
C        0.204546       0.855231      -1.446417
C        0.517754      -0.399686      -0.679097
O        2.381034       1.924937      -1.735906
O        1.925053       3.198061      -1.262440
O        1.396069      -1.172348      -0.930780
H        2.751956       3.613262      -0.986273
H        0.943865       1.901560      -3.202198
H        1.822115       0.385144      -2.811197
H       -0.176091      -0.575483       0.167646
H       -0.713982       0.670913      -2.008757
H        0.003696       1.668180      -0.745842
12

C        1.290014       1.275538      -2.505234
C        0.174965       0.868399      -1.534546
C        0.587873      -0.255265      -0.626427
O        2.391818       1.750212      -1.800904
O        1.864735       3.018140      -1.202809
O        1.515877      -0.991919      -0.800968
H        2.676096       3.407814      -0.859552
H        0.922166       2.044124      -3.193064
H        1.680804       0.422683      -3.068984
H       -0.137665      -0.475510       0.188082
H       -0.716895       0.541418      -2.075132
H       -0.091159       1.737645      -0.932741
12

C        1.268838       1.293352      -2.572409
C        0.170085       0.912815      -1.580741
C        0.669178      -0.064282      -0.557341
O        2.420453       1.581767      -1.833771
O        1.800308       2.873810      -1.083482
O        1.638846      -0.750115      -0.672585
H        2.601430       3.246285      -0.691653
H        0.934077       2.160708      -3.141314
H        1.576756       0.486273      -3.253897
H       -0.063030      -0.350418       0.241241
H       -0.702345       0.482155      -2.067741
H       -0.138535       1.824934      -1.067334
12

C        1.242195       1.302491      -2.613833
C        0.139668       0.942168      -1.618926
C        0.746817       0.138081      -0.502383
O        2.414041       1.433946      -1.883407
O        1.763338       2.729192      -0.923783
O        1.772824      -0.468529      -0.577178
H        2.562912       3.044696      -0.490551
H        0.962042       2.245322      -3.092507
H        1.473018       0.545409      -3.376318
H        0.042833      -0.170202       0.301390
H       -0.692989       0.396149      -2.064562
H       -0.241131       1.869840      -1.195266
12

C        1.237079       1.284737      -2.635287
C        0.129291       1.006824      -1.615176
C        0.823547       0.337056      -0.471108
O        2.443534       1.216776      -1.967839
O        1.649197       2.693156      -0.711715
O        1.877290      -0.245872      -0.571342
H        2.443273       2.967636      -0.247278
H        1.042461       2.280041      -3.045017
H        1.354945       0.553712      -3.449585
H        0.174611       0.016043       0.362570
H       -0.687704       0.410944      -2.029471
H       -0.277621       1.940828      -1.234694
12

C        1.235548       1.262859      -2.638727
C        0.116677       1.068136      -1.604233
C        0.896173       0.552241      -0.449761
O        2.448197       1.019821      -2.021246
O        1.528512       2.616957      -0.512188
O        1.991520      -0.018473      -0.617139
H        2.321900       2.848093      -0.027818
H        1.135259       2.291419      -2.993198
H        1.255738       0.558986      -3.485226
H        0.313301       0.216199       0.410888
H       -0.678697       0.415185      -1.979532
H       -0.326316       2.006137      -1.275026
12

C        1.224499       1.243360      -2.653299
C        0.115531       1.108260      -1.607148
C        0.962917       0.766835      -0.430464
O        2.430476       0.807370      -2.076671
O        1.438689       2.540455      -0.338256
O        2.089600       0.177876      -0.654007
H        2.229510       2.713369       0.174276
H        1.239139       2.294502      -2.949098
H        1.149519       0.593379      -3.534979
H        0.435048       0.387750       0.440830
H       -0.630652       0.364679      -1.903524
H       -0.388308       2.040914      -1.367558
12

C        1.212673       1.157700      -2.731901
C        0.116908       1.068975      -1.668618
C        1.009752       0.910522      -0.463668
O        2.368563       0.544831      -2.192230
O        1.365065       2.420157      -0.229353
O        2.152884       0.269779      -0.757834
H        2.149041       2.517293       0.316397
H        1.381776       2.213390      -2.966585
H        1.021031       0.586880      -3.644826
H        0.540698       0.464920       0.414175
H       -0.543349       0.216979      -1.842146
H       -0.468382       1.975524      -1.553970
12

C        1.176877       0.963829      -2.821860
C        0.124390       0.995202      -1.715255
C        1.067120       1.062513      -0.511651
O        2.229712       0.187384      -2.300021
O        1.380205       2.400958      -0.265722
O        2.188591       0.310524      -0.867386
H        2.172861       2.442981       0.280705
H        1.522136       1.981713      -3.048034
H        0.847248       0.464384      -3.732906
H        0.659951       0.588379       0.395663
H       -0.458186       0.076291      -1.690633
H       -0.521894       1.865332      -1.758602
[GEOCONV]
energy
0.0
3.77368120737
18.967531167
38.1019337949
86.4067247838
77.5139432835
27.1269398604
-11.7386611543
-23.4668292897
max-force
5.51255027824e-05
0.0054913472011
0.0101960336329
0.00918439303066
0.0094656496732
0.0070891471613
0.00996873142546
0.00647842474576
9.59509347099e-05
max-step
1000.0
1000.0
1000.0
1000.0
1000.0
1000.0
1000.0
1000.0
1000.0
