[Molden Format]
[Geometries] (XYZ)
12

C        1.332993       1.269721      -2.394440
C        0.204546       0.855231      -1.446417
C        0.517754      -0.399686      -0.679097
O        2.381034       1.924937      -1.735906
O        1.925053       3.198061      -1.262440
O        1.396069      -1.172348      -0.930780
H        2.751956       3.613262      -0.986273
H        0.943865       1.901560      -3.202198
H        1.822115       0.385144      -2.811197
H       -0.176091      -0.575483       0.167646
H       -0.713982       0.670913      -2.008757
H        0.003696       1.668180      -0.745842
12

C        1.289464       1.309995      -2.487642
C        0.174445       0.897482      -1.522633
C        0.602461      -0.211802      -0.594096
O        2.387011       1.776224      -1.777630
O        1.872251       3.011665      -1.174504
O        1.541860      -0.935810      -0.761528
H        2.684414       3.397621      -0.827800
H        0.923412       2.088522      -3.164449
H        1.678639       0.463266      -3.063000
H       -0.125883      -0.438908       0.216993
H       -0.713075       0.551718      -2.057904
H       -0.102517       1.772934      -0.934842
12

C        1.255911       1.313802      -2.577193
C        0.155954       0.931110      -1.585090
C        0.680044      -0.008413      -0.537913
O        2.409626       1.579776      -1.835833
O        1.793134       2.844324      -1.047314
O        1.666550      -0.670552      -0.639898
H        2.594351       3.205278      -0.646558
H        0.927969       2.197519      -3.126932
H        1.551588       0.518897      -3.276993
H       -0.048389      -0.304305       0.258096
H       -0.709231       0.471318      -2.059291
H       -0.168765       1.849699      -1.094545
12

C        1.214227       1.301312      -2.663688
C        0.104515       0.904034      -1.673463
C        0.748382       0.172569      -0.513475
O        2.373255       1.438106      -1.923166
O        1.769349       2.591674      -0.907197
O        1.812643      -0.364571      -0.549469
H        2.567474       2.879335      -0.452869
H        0.941218       2.263051      -3.119523
H        1.433216       0.568598      -3.449065
H        0.041575      -0.165484       0.274039
H       -0.707473       0.295024      -2.071705
H       -0.307087       1.843574      -1.309555
12

C        1.200488       1.281868      -2.729926
C        0.077234       0.918863      -1.706011
C        0.815272       0.381885      -0.491753
O        2.389671       1.203684      -2.086865
O        1.654169       2.468172      -0.676590
O        1.908364      -0.108520      -0.531666
H        2.453279       2.695418      -0.196079
H        1.002179       2.303770      -3.094469
H        1.274310       0.592492      -3.585652
H        0.165721       0.050161       0.342076
H       -0.683171       0.217075      -2.046630
H       -0.403250       1.854726      -1.428236
12

C        1.198526       1.200366      -2.708797
C        0.068020       0.988551      -1.685989
C        0.885648       0.537996      -0.524224
O        2.397573       0.976445      -2.084018
O        1.486961       2.455298      -0.522167
O        2.020316       0.014661      -0.732847
H        2.291770       2.663157      -0.047066
H        1.086008       2.233219      -3.051440
H        1.215393       0.507401      -3.567142
H        0.323601       0.201143       0.341541
H       -0.708116       0.308640      -2.051501
H       -0.408740       1.917086      -1.375446
12

C        1.185612       1.177472      -2.740507
C        0.081126       1.018378      -1.693528
C        0.947287       0.700926      -0.519130
O        2.393017       0.730364      -2.178865
O        1.381720       2.419832      -0.386921
O        2.087726       0.126399      -0.771243
H        2.174634       2.587550       0.124057
H        1.197705       2.235227      -3.011202
H        1.103733       0.548959      -3.637758
H        0.435176       0.299754       0.348949
H       -0.649238       0.259161      -1.985665
H       -0.443339       1.940366      -1.456170
12

C        1.191837       1.134803      -2.777421
C        0.097852       1.016703      -1.710966
C        1.000813       0.868282      -0.510518
O        2.349051       0.527403      -2.252968
O        1.328437       2.343546      -0.253246
O        2.151380       0.243654      -0.833983
H        2.117134       2.438506       0.286121
H        1.352036       2.195725      -2.994004
H        1.000545       0.578660      -3.700009
H        0.546225       0.403957       0.364228
H       -0.548334       0.154794      -1.888770
H       -0.502855       1.911912      -1.587604
12

C        1.176877       0.963829      -2.821860
C        0.124390       0.995202      -1.715255
C        1.067120       1.062513      -0.511651
O        2.229712       0.187384      -2.300021
O        1.380205       2.400958      -0.265722
O        2.188591       0.310524      -0.867386
H        2.172861       2.442981       0.280705
H        1.522136       1.981713      -3.048034
H        0.847248       0.464384      -3.732906
H        0.659951       0.588379       0.395663
H       -0.458186       0.076291      -1.690633
H       -0.521894       1.865332      -1.758602
[GEOCONV]
energy
0.0
3.14923414925
19.5975838426
30.7206121816
79.6499434326
58.8963901641
18.5819640263
-14.7226324758
-23.4668292897
max-force
5.51255027824e-05
0.00367334948981
0.0100379471458
0.00938584955291
0.00461809873372
0.00630826536747
0.0103683901747
0.00611817517767
9.59509347099e-05
max-step
1000.0
1000.0
1000.0
1000.0
1000.0
1000.0
1000.0
1000.0
1000.0
