8
	Energy:      -0.3502459
O         11.41865        2.13943        3.54284
H         12.05268        2.33678        4.27735
H         11.93692        2.30644        2.71574
C         11.61289       -1.06216        2.02704
N         10.43173       -0.67513        1.71509
H         12.21692       -1.59335        1.29981
H         12.01434       -0.86192        3.01579
H          9.84860       -0.16971        2.39770
