6
	Energy:      -0.2664828
C         -3.98213       -1.11660       -0.62922
N         -3.10926       -1.87614       -0.08065
C         -4.77244       -4.18776       -1.85261
N         -3.64670       -4.40622       -2.00492
H         -5.80168       -3.98424       -1.71152
H         -3.37095       -2.46564        0.72184
