6
	Energy:      -0.1414758
C         -3.99578        4.49461        0.40213
N         -2.82303        4.27448       -0.06034
H         -2.10900        3.83267        0.53613
O         -2.71818        1.23160       -0.26691
H         -2.01489        0.55148       -0.11609
H         -3.52663        0.71027       -0.50054
