9
	Energy:       0.4448122
C         -2.97931        0.72275        0.23052
O         -2.20190        1.43332        0.84592
N         -2.82345       -0.61915        0.22838
H         -3.48232       -1.21352       -0.29343
H         -3.79938        1.17434       -0.31786
H         -2.04794       -1.06108        0.74414
O          0.02317        0.11605       -0.68260
H          0.36807        0.84080       -0.10281
H          0.30654       -0.71856       -0.23159
