9
	Energy:      -0.0066086
C         -2.27195        0.66165        0.06083
O         -1.30157        1.38629        0.21163
N         -2.12610       -0.68034        0.04809
H         -2.94908       -1.28641       -0.07903
H         -3.25567        1.10234       -0.06289
N          1.68109       -1.04465       -0.25676
C          1.64677        0.11190       -0.24110
H         -1.19754       -1.11171        0.16491
H          1.61350        1.16968       -0.22650
