9
	Energy:      12.1979639
N          1.28758       -0.52755       -0.10940
C         -0.00761        0.00848        0.29611
O         -0.14359        1.30767       -0.20977
H          1.32759       -0.58185       -1.15344
H          1.39506       -1.49400        0.27575
H         -0.04598        0.05284        1.41161
O         -1.04078       -0.79822       -0.20904
H         -0.98228        1.67291        0.17589
H         -1.12371       -1.57269        0.40630
