8
	Energy:       0.1764050
O         -0.03445        2.34908       -0.05012
C          0.14868       -0.75669        0.56231
O          1.14481       -1.02967       -0.08778
H          0.25213       -0.31219        1.54616
O         -1.08106       -0.99295        0.06121
H         -1.20132       -1.38312       -0.81611
H          0.88100        2.00353       -0.20269
H         -0.42540        2.42260       -0.95675
