9
	Energy:      -0.2523736
O         -4.18295        2.19140       -1.73748
H         -5.02755        2.72803        1.32092
H         -3.97889        2.66415       -2.55596
C         -4.51537        2.86638       -0.62029
N         -4.77588        2.22466        0.45814
H         -4.55990        3.95201       -0.63359
C         -1.77031        1.01451        0.41782
N         -1.41883        0.76487       -0.65615
H         -2.09649        1.24505        1.39800
