[Molden Format]
[Geometries] (XYZ)
12

C        1.232538       1.349905      -2.292660
C        0.599805       0.625421      -1.098808
C        1.245116      -0.698688      -0.830104
O        0.728337       2.644269      -2.467628
O        1.150489       3.467766      -1.376314
O        0.664211      -1.715748      -0.582222
H        0.829293       4.337678      -1.646154
H        2.324313       1.382767      -2.179447
H        0.977179       0.857975      -3.234508
H        2.353207      -0.666055      -0.865811
H       -0.473903       0.501349      -1.246740
H        0.758436       1.252960      -0.215404
12

C        1.439538       1.321305      -2.227701
C        0.806989       0.701683      -1.055022
C        1.194128      -0.697544      -0.700921
O        0.458289       2.770214      -2.260237
O        1.082757       3.510555      -1.232980
O        0.448414      -1.504862      -0.229685
H        0.706120       4.390454      -1.372112
H        2.408011       1.787921      -2.145676
H        1.262261       0.688549      -3.086800
H        2.257489      -0.939093      -0.896042
H       -0.324736       0.658730      -1.089177
H        0.889948       1.423449      -0.233736
12

C        1.544261       1.193924      -2.131509
C        0.879219       0.704872      -1.053165
C        1.203651      -0.681133      -0.623100
O        0.227957       2.934721      -1.921364
O        1.084256       3.636880      -1.111651
O        0.446263      -1.382614      -0.022211
H        0.705896       4.535174      -1.187191
H        2.380280       1.898645      -2.054794
H        1.494948       0.429451      -2.884090
H        2.204660      -1.025173      -0.882483
H       -0.284496       0.766930      -1.002269
H        0.877071       1.519065      -0.317491
12

C        1.707024       1.105382      -2.158489
C        0.857919       0.773320      -1.079967
C        1.124511      -0.653493      -0.729555
O       -0.104116       2.886332      -1.749194
O        0.978048       3.577199      -1.203335
O        0.385947      -1.332963      -0.073488
H        0.659404       4.492238      -1.188380
H        2.483860       1.844951      -2.153424
H        1.721167       0.239695      -2.806395
H        2.080196      -1.054871      -1.107435
H       -0.398916       0.929182      -0.878337
H        0.837466       1.661355      -0.423498
12

C        1.981145       0.989824      -2.266945
C        1.079922       0.806576      -1.241173
C        1.088157      -0.599155      -0.801561
O       -0.380824       2.816566      -1.457824
O        0.820776       3.501406      -1.215094
O        0.246066      -1.102343      -0.106601
H        0.514435       4.409451      -1.097999
H        2.742002       1.732703      -2.332139
H        2.020449       0.078961      -2.847383
H        1.966562      -1.182293      -1.142389
H       -0.406208       1.097931      -0.787997
H        1.051980       1.762616      -0.703676
12

C        2.287943       0.877673      -2.405126
C        1.343891       0.816048      -1.450041
C        1.075174      -0.456920      -0.830576
O       -0.533713       2.686366      -1.075499
O        0.668959       3.402814      -1.112478
O        0.109653      -0.667986      -0.132899
H        0.360315       4.297432      -0.922250
H        3.036174       1.626773      -2.528004
H        2.384514      -0.069404      -2.917492
H        1.838840      -1.232737      -1.012805
H       -0.371924       1.235635      -0.698680
H        1.262294       1.807420      -1.026282
12

C        2.579730       0.745505      -2.472723
C        1.572418       0.832114      -1.587649
C        1.073279      -0.294629      -0.869516
O       -0.618986       2.546231      -0.669632
O        0.513492       3.319377      -0.960931
O        0.053734      -0.202676      -0.204865
H        0.190490       4.207135      -0.758058
H        3.290773       1.512135      -2.702247
H        2.755924      -0.248420      -2.861653
H        1.668294      -1.213824      -0.923636
H       -0.350055       1.376113      -0.508814
H        1.402290       1.843617      -1.272921
12

C        2.712773       0.587384      -2.567123
C        1.666029       0.811479      -1.749006
C        1.000049      -0.229593      -1.011507
O       -0.827682       2.549615      -0.421847
O        0.251839       3.311530      -0.921496
O        0.004789      -0.037687      -0.342183
H       -0.057641       4.208975      -0.746673
H        3.360138       1.356093      -2.946426
H        2.969403      -0.433689      -2.807733
H        1.462846      -1.225794      -1.078540
H       -0.518130       1.542174      -0.378644
H        1.418353       1.836524      -1.536057
12

C        2.647362       0.251892      -2.785307
C        1.670554       0.669109      -1.985978
C        0.926278      -0.257051      -1.139778
O       -0.913412       2.702715      -0.202287
O        0.078532       3.344453      -0.996072
O        0.024562       0.055023      -0.397637
H       -0.174546       4.271883      -0.912959
H        3.199478       0.929315      -3.414138
H        2.925925      -0.789117      -2.838173
H        1.248302      -1.311934      -1.218156
H       -0.626623       1.763157      -0.220019
H        1.382609       1.710155      -1.925297
[GEOCONV]
energy
0.0
32.706792486
96.694249773
130.577020421
139.585232665
102.725156064
52.531316253
30.0310777889
24.6488250477
max-force
5.44934368797e-05
0.00935685983359
0.0100294211535
0.00629007192938
0.00868657162857
0.0098833995294
0.00844293710501
0.00605772897423
6.68924037475e-05
max-step
1000.0
1000.0
1000.0
1000.0
1000.0
1000.0
1000.0
1000.0
1000.0
