[Molden Format]
[Geometries] (XYZ)
12

C        1.232538       1.349905      -2.292660
C        0.599805       0.625421      -1.098808
C        1.245116      -0.698688      -0.830104
O        0.728337       2.644269      -2.467628
O        1.150489       3.467766      -1.376314
O        0.664211      -1.715748      -0.582222
H        0.829293       4.337678      -1.646154
H        2.324313       1.382767      -2.179447
H        0.977179       0.857975      -3.234508
H        2.353207      -0.666055      -0.865811
H       -0.473903       0.501349      -1.246740
H        0.758436       1.252960      -0.215404
12

C        1.458069       1.295868      -2.323983
C        0.833018       0.655461      -1.148528
C        1.202559      -0.741797      -0.787208
O        0.469710       2.702874      -2.329040
O        1.102797       3.465407      -1.322111
O        0.447141      -1.531773      -0.305203
H        0.723274       4.342296      -1.474739
H        2.411999       1.790755      -2.243022
H        1.284544       0.664904      -3.183579
H        2.260460      -1.004649      -0.994224
H       -0.278787       0.610801      -1.181888
H        0.908803       1.379484      -0.325972
12

C        1.551119       1.135257      -2.294174
C        0.882931       0.628204      -1.211382
C        1.198909      -0.763998      -0.788254
O        0.213116       2.860163      -2.061905
O        1.089723       3.605932      -1.299619
O        0.446943      -1.475131      -0.185976
H        0.706058       4.497307      -1.391801
H        2.359338       1.857045      -2.217507
H        1.508823       0.369493      -3.048129
H        2.193291      -1.114613      -1.076108
H       -0.247231       0.688858      -1.170177
H        0.887421       1.431614      -0.457892
12

C        1.780090       1.087834      -2.324158
C        0.967869       0.723231      -1.200639
C        1.134490      -0.716960      -0.807783
O       -0.059015       2.814204      -1.823849
O        0.982112       3.568517      -1.325020
O        0.349801      -1.330708      -0.141359
H        0.621927       4.467483      -1.295356
H        2.520434       1.858569      -2.330783
H        1.811210       0.255048      -3.015570
H        2.053956      -1.192320      -1.178260
H       -0.186021       0.891568      -1.034072
H        1.003146       1.583533      -0.506233
12

C        2.023178       0.997605      -2.426378
C        1.179276       0.801000      -1.346329
C        1.092994      -0.591802      -0.815078
O       -0.317982       2.694377      -1.578854
O        0.822993       3.399820      -1.247567
O        0.215643      -1.019818      -0.114339
H        0.466971       4.270662      -1.027170
H        2.762980       1.764650      -2.501577
H        2.064813       0.137895      -3.086161
H        1.942408      -1.223740      -1.099063
H       -0.195518       1.186905      -1.048457
H        1.243034       1.725386      -0.749547
12

C        2.264206       0.854370      -2.558526
C        1.369345       0.783134      -1.563303
C        1.075809      -0.456409      -0.897572
O       -0.513571       2.538189      -1.136521
O        0.644440       3.296129      -1.135833
O        0.083227      -0.562106      -0.200765
H        0.299238       4.168005      -0.896404
H        3.016636       1.607551      -2.658820
H        2.351932      -0.048989      -3.137706
H        1.798481      -1.269888      -1.024423
H       -0.333949       1.259475      -0.841412
H        1.349813       1.756323      -1.114723
12

C        2.495645       0.703973      -2.662419
C        1.513459       0.783890      -1.740789
C        0.998333      -0.323522      -0.991148
O       -0.668301       2.404628      -0.768986
O        0.437624       3.219476      -1.037428
O       -0.007456      -0.189707      -0.307516
H        0.088447       4.092626      -0.814562
H        3.199227       1.481008      -2.878798
H        2.674888      -0.266125      -3.100926
H        1.564728      -1.254651      -1.024109
H       -0.407374       1.358539      -0.653916
H        1.385072       1.788414      -1.398653
12

C        2.666993       0.563746      -2.693828
C        1.636759       0.780704      -1.846439
C        0.968414      -0.270311      -1.100719
O       -0.859390       2.465202      -0.485765
O        0.216041       3.250100      -0.972514
O       -0.006669      -0.108554      -0.395043
H       -0.102573       4.139862      -0.781835
H        3.293099       1.344867      -3.081248
H        2.931710      -0.448162      -2.968714
H        1.430680      -1.265773      -1.189562
H       -0.541675       1.515794      -0.449409
H        1.407017       1.805654      -1.598944
12

C        2.647362       0.251892      -2.785307
C        1.670554       0.669109      -1.985978
C        0.926278      -0.257051      -1.139778
O       -0.913412       2.702715      -0.202287
O        0.078532       3.344453      -0.996072
O        0.024562       0.055023      -0.397637
H       -0.174546       4.271883      -0.912959
H        3.199478       0.929315      -3.414138
H        2.925925      -0.789117      -2.838173
H        1.248302      -1.311934      -1.218156
H       -0.626623       1.763157      -0.220019
H        1.382609       1.710155      -1.925297
[GEOCONV]
energy
0.0
30.4962003987
93.8045233527
117.584846047
111.336215147
84.5061654488
44.2420011005
28.3416247455
24.6488250477
max-force
5.44934368797e-05
0.00848923263664
0.0141407369292
0.00496142402329
0.00608377142982
0.0110896322369
0.00695163874946
0.00404820358165
6.68924037475e-05
max-step
1000.0
1000.0
1000.0
1000.0
1000.0
1000.0
1000.0
1000.0
1000.0
