56
 energy: -94.154627100372 gnorm: 0.000156866377 xtb: 6.4.0 (d4b70c2)
c         0.96554716999974   -2.74177403999975    0.17727162000002
c         1.16832473000018   -4.23932533000001   -0.00732709000009
c        -0.46061281000015   -2.35403843000006   -0.23247500999993
o        -0.76651547000013   -2.21196530999986   -1.41317611000005
o         0.78974222000022   -0.08232139999975   -0.23277365000020
o         1.13933489000016   -1.67997875000005   -3.47719251999990
n         1.87833775000024   -1.99667252000018   -0.67016258000001
c         1.62665881000004   -0.68879063999998   -0.88332230000005
c         2.37922721999985   -0.08253094999992   -2.04904987999982
c         1.46157352000017   -0.33046621999991   -3.28822829999975
n         2.66627241999974    1.31187143000019   -1.80260605999978
n        -1.33469471000015   -2.24546139999986    0.76859922000021
c        -2.73149367999982   -1.90189817000006    0.56162553000010
c        -3.56891233999997   -2.45022377999994    1.70579585000026
c        -2.90516107999983   -0.36998390999976    0.44567554999984
o        -3.52031218999983    0.28546418999994    1.25867307000022
n        -2.33310336000025    0.14155747000007   -0.65984389999975
o        -0.12435088000003    2.47852208999980   -1.42526253999986
o        -0.74487029000024    2.09218530999977    0.71258858999994
c        -2.31928166999980    1.56416543000019   -0.93812610999987
c        -0.92534579000004    2.10978061999980   -0.61017734999978
c        -2.68748764000025    1.83544721999977   -2.38973752999977
h         1.13595318000016   -2.44910077999997    1.21971923000010
h         0.95804688999974   -4.51991736000002   -1.03782475000005
h         0.49839099000004   -4.78977758999985    0.64786629000004
h         2.19326217999990   -4.50971496000007    0.23480977000026
h         0.44076954000011   -1.93833372999997   -2.84620459000008
h         2.40667669000014   -2.50954704999985   -1.36001871000015
h         3.32503996999977   -0.61673320999980   -2.19997117999999
h         1.99583327000015   -0.00862597000007   -4.18793456000020
h         0.56381566999979    0.29166647000004   -3.17294626000024
h         1.81710516000007    1.78003880000006   -1.49465940000000
h         2.96744853000006    1.76219508000006   -2.66061170000012
h        -0.99018959999988   -2.21185341000025    1.71986703000014
h        -3.03182981000008   -2.34691827000014   -0.39498053999977
h        -4.61736501999986   -2.22765621999982    1.53113047000019
h        -3.27527027000016   -1.97537407000008    2.63888434999983
h        -3.44003035000001   -3.52618875000004    1.79034292000024
h        -1.76995086999990   -0.46097822999995   -1.24883763999995
h        -3.03797923000001    2.01625060999982   -0.24373634000014
h        -2.70025139999993    2.90535559000015   -2.57711561000004
h        -3.66832728000007    1.42247481000020   -2.60820543000005
h        -1.95399454999982    1.38066160999975   -3.05122923999977
c         0.51722359000018    2.23847331999974    1.26055915999984
c         0.94182573999997    1.24207740000020    2.15356321000010
c         1.35182380000023    3.29404990999991    0.93955873000014
c         2.21983145999983    1.32383645000026    2.69986159999995
c         3.04958205999986    2.38213519999983    2.38473633000010
c         2.61435277999983    3.36264490999989    1.50796419000002
h         1.02288834000024    4.04841453999992    0.24236526999977
h         4.03869646000010    2.44036060000025    2.81264321000020
h         3.26398492000011    4.18573378000004    1.25238262000009
h         2.53920017000005    0.54118575999993    3.37183802000003
c         0.06254597999988    0.10514940999985    2.41603171999990
o         0.40688003000009   -0.97371238999989    2.84721420000026
h        -0.99395227999993    0.30077797999989    2.17213985000023
56
 energy: -94.091599312264 gnorm: 0.113863592650 xtb: 6.4.0 (d4b70c2)
c         0.92308224297412   -2.79267750736434    0.04303047578706
c         1.11623731087412   -4.29516399484142   -0.10889306228076
c        -0.51105347336255   -2.36655665680453   -0.29437026043405
o        -0.87824967713090   -2.24627118886082   -1.45992362606891
o         0.71128305400126   -0.09985973205267   -0.40092901205485
o         1.26184101887723   -2.07228028488019   -3.54603739594012
n         1.78878844143443   -2.03347012293832   -0.84052176616870
c         1.54880318143284   -0.72077349797525   -1.03691171093196
c         2.30387036831920   -0.21074711236688   -2.24628239063858
c         1.40396017735810   -0.68394561181393   -3.43176465327955
n         2.49912081798282    1.21876035308501   -2.16964579578111
n        -1.32822027945487   -2.22804377151228    0.75014414462093
c        -2.72920804400923   -1.89185433347688    0.56006229541094
c        -3.55316944556425   -2.28170130120644    1.77668206311693
c        -2.90939589359827   -0.36317387743924    0.41502964003345
o        -3.67573131471135    0.25127857776117    1.12507631090986
n        -2.24660886803100    0.16687516365903   -0.62941243845558
o         0.02791351614584    2.56171233411028   -1.17770352302778
o        -0.72809206059549    2.09904175425395    0.84681641603677
c        -2.20674047140904    1.58234146510217   -0.93975275929289
c        -0.85720751211363    2.14523446919919   -0.48125971921917
c        -2.45719676421538    1.75604256104334   -2.43087473736007
h         1.20532925133503   -2.45508338932696    1.04690282881685
h         0.49766116994187   -4.53171467265419   -0.97276887451231
h         0.74230838834142   -4.70063785457276    0.82751250230607
h         2.18030690971566   -4.40618738565496   -0.30297367071986
h         0.47871643599364   -2.13738116687061   -2.96693086468154
h         2.37550577789551   -2.61545644506903   -1.41943323252074
h         3.21452019698704   -0.81152067835191   -2.35808159712928
h         1.84167608134698   -0.41759916245579   -4.39920991647944
h         0.45606225008548   -0.12972206543392   -3.40658589724967
h         1.70855624021316    1.67984041675963   -1.72522517266676
h         2.60722293991920    1.61361780456738   -3.09812500465556
h        -0.99951480362204   -2.40050435489070    1.69191575740431
h        -3.12773463602597   -2.44123592019864   -0.30173598843460
h        -4.56307144935791   -1.96051547026362    1.53954298843995
h        -3.26529748836765   -1.71619262567778    2.65968361207323
h        -3.47043901212195   -3.32946780671209    2.05381094378245
h        -1.61941460642194   -0.44313545476101   -1.14089853986618
h        -3.03893174860000    2.09337955757836   -0.44037103611441
h        -2.71944015934469    2.79022736475427   -2.63500110925713
h        -3.05594420361667    0.96482510094643   -2.87336459321637
h        -1.49714539940262    1.60795686571522   -2.91953141939713
c         0.50752149023900    2.33213929153069    1.42429168859488
c         1.04694460204347    1.26836109799093    2.16452602433569
c         1.19889160053936    3.52886272389701    1.36345381358542
c         2.28225350371524    1.50370622083562    2.76206248189553
c         3.00707507360883    2.67790130491335    2.70135077153287
c         2.40735201600880    3.72128699801373    2.01488751038934
h         0.62697690806379    4.21652451716553    0.76064527026598
h         4.00780961805913    2.73540409054561    3.10143279899122
h         2.79115053899829    4.72946327120926    2.04803072172826
h         2.69110094929104    0.69185950424495    3.34502003524217
c         0.24789988310148    0.06137479245311    2.36286815420246
o         0.62028626683178   -0.98055105290752    2.85697949189155
h        -0.75534067887981    0.39150541605883    2.04907755734472
56
 energy: -94.086891686123 gnorm: 0.109534796405 xtb: 6.4.0 (d4b70c2)
c         0.92228175099443   -2.92181181310975   -0.03094482505921
c         1.04322405693453   -4.43757825413454   -0.10631312850047
c        -0.51498536167061   -2.49798136441265   -0.35773918262724
o        -1.02031515084296   -2.61041402766726   -1.47120989845706
o         0.85467495915654   -0.12376262854319   -0.54378379265036
o         0.91685687365893   -2.49050424064085   -3.68442945125789
n         1.77714327991969   -2.17246295540872   -0.93327278314895
c         1.49150909343117   -0.89224428963895   -1.24757788485173
c         2.09238529762738   -0.50245286734851   -2.58168481664258
c         1.27919279593098   -1.13967084769243   -3.75292117262592
n         2.20876186059793    0.93119103628854   -2.71810028173074
n        -1.22292349801092   -2.15252160951333    0.71810418696596
c        -2.60443331128282   -1.71868010227219    0.59508634180137
c        -3.38459195937624   -2.22931027896152    1.79578032586068
c        -2.82454917963713   -0.20619239338993    0.36207121725152
o        -3.73064806949184    0.34939500271645    0.94456202576597
n        -1.99303927162674    0.32536345236621   -0.55288100092689
o         0.10161626625711    3.05026228768626   -0.89934236165926
o        -0.72581117154720    2.09503304670178    0.97564710138723
c        -1.93260307880877    1.71077441929070   -0.97529000272025
c        -0.71470590002282    2.37941895982581   -0.32880374686333
c        -1.92978411349360    1.73775371734903   -2.49700263268532
h         1.19825592151757   -2.59243461564902    0.97739133309921
h         0.91646707348450   -4.67813670246397   -1.16032375044611
h         0.25576689612089   -4.96569569961440    0.42480876355109
h         1.94222845218124   -4.89765501920684    0.29662367174910
h         0.17206286568722   -2.68745207961519   -3.08494630031695
h         2.18322103301105   -2.72416844747613   -1.67408701522873
h         3.04281294069983   -1.02364724096703   -2.74828250674954
h         1.86369252809794   -1.34776607155501   -4.65488704199526
h         0.35991111690064   -0.55101777683697   -3.87423463089223
h         1.54536266046894    1.36752514560635   -2.08200994410696
h         2.01085760368183    1.21116587344949   -3.67315007987914
h        -0.70803162485110   -2.10107249081057    1.58814044087891
h        -2.91963740134589   -2.13548261932186   -0.36941452104641
h        -4.40235473400635   -1.87282791338265    1.92375142085897
h        -2.82289293206242   -1.86922782101205    2.65438203319503
h        -3.55448495947024   -3.29882743990802    1.70235223748854
h        -1.21597442314933   -0.24909168812567   -0.85829079955023
h        -2.81091557440558    2.28859558303881   -0.66260132810497
h        -2.22828805451454    2.67303893517288   -2.96188362454125
h        -2.80668246805603    1.17563459365807   -2.80585891046538
h        -0.91375151322036    1.45001044924078   -2.75641526356349
c         0.36618092305229    2.45368569075291    1.74601995685865
c         1.11243598646078    1.40832047809479    2.31246752469369
c         0.75298042507865    3.77768697798921    1.85207343588879
c         2.21107470129591    1.68061169462958    3.12319278124519
c         2.59589332303073    3.00357505542534    3.22050026132719
c         1.91595291156401    4.01859685063405    2.56707471657606
h         0.22708669176774    4.63238716644064    1.45676776970077
h         3.40336911324280    3.34499846882162    3.84998788032550
h         2.26603740502121    5.03950742233570    2.56832586704728
h         2.90044339029647    1.03304828392375    3.64427163345960
c         0.52606620990547    0.07227715989982    2.23639854831879
o         1.16054813056452   -0.91949281660205    2.52319467604579
h        -0.53112399691453    0.08510195925000    1.92635547739985
56
 energy: -94.080733150708 gnorm: 0.140234016231 xtb: 6.4.0 (d4b70c2)
c         0.91618072205901   -2.97114326668602   -0.16866346222479
c         1.08242879409982   -4.48121916936618   -0.06922716087143
c        -0.55714725165113   -2.64053696868739   -0.43730358771835
o        -1.07182337598818   -2.74238745302993   -1.54750679691975
o         0.78880773664167   -0.41520917479040   -1.14476409973093
o         0.72288254734347   -2.97690475341101   -3.82328137870266
n         1.77612896956991   -2.50500353709994   -1.24090892820614
c         1.46557012541254   -1.27220544576962   -1.69157110270607
c         1.94598598121565   -0.97837422469149   -3.09716514067322
c         0.83459453069746   -1.59312149803215   -4.00602056908761
n         2.11401845504318    0.44365735027713   -3.28972364237041
n        -1.15460882014219   -2.16527727075555    0.65591437779836
c        -2.52159021399507   -1.67675769122712    0.58785901986499
c        -3.28827522874941   -1.91914712287127    1.87801330670935
c        -2.66287810802386   -0.17327590120400    0.25627774415026
o        -3.68304993122574    0.38588743189081    0.59623920681218
n        -1.71613434788691    0.40233318912825   -0.50756005001042
o        -0.04865325363168    3.53940077063133   -0.46768224512323
o        -0.66087476411747    2.13070279541350    1.13602200409533
c        -1.70815308876917    1.78648991303554   -0.93824764987542
c        -0.73647170390840    2.62569323645337   -0.10166140884854
c        -1.41893245063506    1.86030831189524   -2.43064417023468
h         1.24607979681108   -2.67668721196163    0.83425978951755
h         0.66726944138182   -5.15077444869053   -0.82036796492493
h         0.70361914270788   -4.83834801327890    0.88473798373808
h         2.14375823920915   -4.70115978709212   -0.15550293889299
h         0.04116923877838   -3.12854826829720   -3.14125658391642
h         2.20898491654169   -3.21686108598868   -1.81009987541515
h         2.76512473109123   -1.61994091080596   -3.44374115879034
h         0.92013357116203   -1.37569604644013   -5.07555094446027
h        -0.20455328053587   -1.28456813369102   -3.82917364505168
h         1.59113205188185    0.93745286296465   -2.57010383560343
h         1.91234384861694    0.87532675414963   -4.18563713906593
h        -0.72686063294060   -2.00114252958836    1.55858537410186
h        -3.08640552294012   -2.20995427957868   -0.18675369654217
h        -4.21012730820104   -1.42959891514264    1.57829906822122
h        -2.88837064914994   -1.50687460325406    2.80130618459283
h        -3.31417415859122   -2.98353566934928    2.09679549007787
h        -0.90470172812001   -0.11605996592254   -0.82370750826782
h        -2.64162091167378    2.33405653169783   -0.75966173427515
h        -0.98644978152164    2.82073321476586   -2.69620040770988
h        -2.29296629256454    1.48149019287463   -2.95302573711390
h        -0.72943658222336    1.06991126855870   -2.71749133785094
c         0.29674422131145    2.63779801684369    1.99647136564042
c         1.15838727655321    1.67355650514756    2.54269244592890
c         0.41139793286041    3.93461442270871    2.46440549125782
c         2.09045110925310    2.02932142061945    3.51383266707398
c         2.18413757953358    3.35092929305573    3.90416797914573
c         1.37673321207470    4.34295405329632    3.37168491087383
h        -0.28272984779818    4.59329615873875    1.96674274761928
h         2.88186124111766    3.71399778708453    4.64322462374109
h         1.53615714697342    5.38955633295211    3.58151053197789
h         2.63402272312866    1.17769009661750    3.89507371375574
c         1.06033936481471    0.30240934968238    2.04774815500832
o         1.64348924104456   -0.61664128624249    2.58039172096054
h         0.41897337484823   -0.04357786895680    1.22137969792019
56
 energy: -94.098762714576 gnorm: 0.104780236629 xtb: 6.4.0 (d4b70c2)
c         0.95640759630169   -3.01828160077228   -0.30461241090638
c         1.10765484332954   -4.45645296196842    0.17145764835020
c        -0.50822126837623   -2.60590844430023   -0.49689911161874
o        -1.21516815566304   -3.06092622743922   -1.39188582744361
o         1.17644474258734   -0.56441782085331   -1.54034657834406
o         0.11680510447050   -3.26344570667106   -4.04036288161506
n         1.67548423424003   -2.77257667815601   -1.54116630346258
c         1.53889137380327   -1.56851162334753   -2.13353789984364
c         1.86683512358390   -1.56171588768530   -3.61179279529949
c         0.57683194814367   -1.98609165584531   -4.38310361829630
n         2.23439581506206   -0.20446684014584   -3.94384951316945
n        -0.96901007697260   -1.85746278060488    0.50582743582858
c        -2.37394058391570   -1.48901039673338    0.55414194292707
c        -3.10961667445991   -1.82459649798842    1.84147227305854
c        -2.70497747570496   -0.04679473356119    0.10604078676496
o        -3.79811680570779    0.43948440048243    0.29986310980393
n        -1.65462445988820    0.54827909637744   -0.48872267607742
o        -0.27841191022332    3.90168625499618   -0.08570586272878
o        -0.39204527278539    2.08321058213895    1.17038859148774
c        -1.61166425987580    1.95721184097409   -0.82711358678388
c        -0.71391289654285    2.79627905880236    0.08848038109494
c        -1.16436286633170    2.13431879146123   -2.27103178896149
h         1.36388612653310   -2.33908286981813    0.45304397631418
h         0.54711115896214   -4.93883302288673   -0.62727531083991
h         0.63240452981493   -4.62372416828963    1.13439313741764
h         2.15434852730205   -4.72408481914563    0.29410800339812
h        -0.41169439250688   -3.31110605289408   -3.22103182216790
h         1.88819038385727   -3.53163969718967   -2.17097836243088
h         2.68914129092282   -2.22242995204924   -3.91176037057803
h         0.69574320271312   -2.15177747893897   -5.45869383007280
h        -0.19159595027264   -1.22230345592655   -4.20295273346785
h         1.52808782833521    0.44087686137609   -3.59778968830317
h         2.49297093300211   -0.15783342359684   -4.92397009273599
h        -0.29121298701671   -1.50726793622014    1.17116824837040
h        -2.69682102236031   -2.07342135665696   -0.31623263883189
h        -4.16031592065167   -1.55196578545782    1.87310971044345
h        -2.60885592865416   -1.21986574455437    2.59373649146189
h        -3.06223542595757   -2.90476720055716    1.95303240837648
h        -0.74941906912539    0.10435945773573   -0.59188366196682
h        -2.61954820942136    2.34697446858571   -0.63912581963612
h        -1.33247852947439    3.16143082230725   -2.58208706143361
h        -1.84836868329714    1.54865703520366   -2.87886168905409
h        -0.11741135857174    1.87466055314327   -2.40844900305959
c         0.36123823523745    2.66663322115787    2.17375043516775
c         1.35844163833326    1.88334019036544    2.77590126695746
c        -0.00142108667705    3.84538080666707    2.80054641738448
c         1.97960781785171    2.33271232454170    3.93807272464849
c         1.67997551700400    3.55032398563643    4.51723474153626
c         0.65583824661445    4.28333456517895    3.93983400919294
h        -0.79311832181038    4.42084957811031    2.34734173193393
h         2.27711776592297    3.84912992416496    5.36516043031997
h         0.17193708590229    5.18033746015480    4.29486168325841
h         2.66409817647467    1.68645737384273    4.46714580843916
c         1.64109157839678    0.57540327448155    2.18935370355541
o         2.09650038436179   -0.34780351699851    2.82866515923557
h         1.56060913907369    0.36904366268708    1.11005731557786
56
 energy: -94.103639655053 gnorm: 0.096638685097 xtb: 6.4.0 (d4b70c2)
c         1.01585440670868   -2.94336177948596   -0.40538322425254
c         1.28933864946649   -4.29195560538851    0.24604317448335
c        -0.48195602061246   -2.64098586878182   -0.53689835785278
o        -1.17865790532476   -3.07026161385529   -1.45240101677056
o         1.06151281733721   -0.73734547878395   -2.04606479302600
o        -0.27246456798624   -3.61355179128209   -4.15601043018474
n         1.62290573191632   -2.91313640558482   -1.72336757897559
c         1.42340039572250   -1.81798110165888   -2.48505442428584
c         1.67962124038250   -2.04521716117543   -3.96002746413355
c         0.26152647822511   -2.37317742371486   -4.52621884559661
n         2.43664300287496   -0.97227508255811   -4.56268893503964
n        -0.94177913029204   -1.82606153590951    0.41305890345617
c        -2.32640245947792   -1.38620114892941    0.44858702122593
c        -2.94392843999808   -1.53077463711521    1.83018641455089
c        -2.42384162416376    0.10234250935560    0.04225038250005
o        -3.49208732677545    0.64508406705909    0.22465322434545
n        -1.32423562963583    0.69652038836682   -0.45666563577849
o        -0.87527507210038    4.13648047150769    0.31548120621591
o        -0.11071964804414    2.17030720784552    1.17583668463459
c        -1.39575534632706    2.10037850017171   -0.81094348103712
c        -0.74055007156091    2.94357230679345    0.28816246041692
c        -0.84908343780166    2.45476469529165   -2.18640901465194
h         1.52474721477531   -2.23672773099489    0.26026630671047
h         0.79112896235758   -5.05196107092958   -0.35316704322868
h         0.95984988961246   -4.20099216895769    1.27766814630276
h         2.36825967874264   -4.33545592114997    0.11847075273256
h        -0.65691389871838   -3.42680085039277   -3.27839467717959
h         1.86636989463985   -3.81400488231732   -2.10709272705995
h         2.37344303400153   -2.89451081741457   -3.96478731663796
h         0.42709284318125   -2.51248348854973   -5.59937660685544
h        -0.46529765874139   -1.58483950072836   -4.28839920114931
h         2.23213580658643   -0.07228852902159   -4.13455592127768
h         2.13946326740624   -0.76874831645182   -5.51133701401091
h        -0.36909003077294   -1.42287254670590    1.14394162391007
h        -2.91999391012658   -2.03228417188472   -0.20987009584032
h        -3.94296236420892   -1.12427392924106    1.70375172965212
h        -2.38882969044893   -1.05845649778149    2.63712074645141
h        -3.04064823853424   -2.55798348709763    2.17216105026426
h        -0.55272810505407    0.16578200133804   -0.84421761303409
h        -2.46249197675899    2.30600145145659   -0.65969361394639
h        -0.67542846594824    3.51599696477994   -2.34005602765690
h        -1.61179383207737    2.16505237383575   -2.90380741398048
h         0.08966856494703    1.94589058992406   -2.39184799304336
c         0.24404071701796    2.63540891864055    2.42978185754213
c         1.29049714007045    1.93716523879464    3.05262448936854
c        -0.35427599413334    3.72851483180935    3.03059584252220
c         1.74633504714189    2.37383524112748    4.29357426010294
c         1.15732546729527    3.47135844345352    4.89048032207113
c         0.12551736456894    4.14895768282577    4.26136620579738
h        -1.21611319510229    4.17487375423028    2.56012409956243
h         1.42437167453528    3.79802519487031    5.88386694422448
h        -0.29402658326305    5.01405777274009    4.75167620043627
h         2.58538412971075    1.96060508707381    4.83332264271057
c         1.99640389752373    0.85133333238371    2.37639026591519
o         2.73755352658148    0.08609281103038    2.95391192674449
h         1.66165420888571    0.71881891813866    1.33508100692753
56
 energy: -94.094609630045 gnorm: 0.112615659148 xtb: 6.4.0 (d4b70c2)
c         1.15662787019895   -2.83010542183990   -0.55944032679971
c         1.35297551425888   -4.07545495653772    0.29402755634966
c        -0.31780133238651   -2.41088433645200   -0.60919673925495
o        -1.07959310982581   -2.93309069485711   -1.41838775715364
o         0.92557773954772   -0.97434839847757   -2.29286370140532
o        -0.47094661493574   -3.96873391135436   -4.26944634701941
n         1.61773311611126   -3.06196681213724   -1.91595420025344
c         1.23220415612848   -2.06782381064899   -2.74201804777396
c         1.47200303741832   -2.44755336035859   -4.18809300404518
c         0.06364868486115   -2.77807571809857   -4.77666445780104
n         2.14878515704465   -1.38777870632251   -4.89966249857952
n        -0.74614940173240   -1.63521963602695    0.38720677233625
c        -2.13769535856535   -1.21689971208463    0.41021672792303
c        -2.78003255479158   -1.46938570094351    1.76473157182070
c        -2.26205932491055    0.29267245545548    0.10023036137697
o        -3.20690368361376    0.91806662242214    0.53050858307481
n        -1.20739583881281    0.80483041726286   -0.56043372769136
o        -0.94715044877951    4.16440545739157    0.40001337733844
o        -0.25057483427875    2.22774491921816    1.31958324448128
c        -1.18889959246152    2.21091064706470   -0.91262932002131
c        -0.80607143173262    2.97256389382592    0.36080326869415
c        -0.12953141395770    2.52079897646150   -1.96050978408893
h         1.71548603062375   -2.00678648437491   -0.09985752852125
h         0.72607549447345   -4.90676761580551   -0.02344639880241
h         1.04716191101324   -3.92534927969017    1.32603220628439
h         2.35483784844957   -4.49708655116349    0.32116146582715
h        -0.78023904077993   -3.76621979730169   -3.36600136217994
h         1.78899940738881   -3.98899996780388   -2.27562235932388
h         2.21027032486680   -3.25529377137914   -4.26039716630937
h         0.24906998564035   -2.89242194118092   -5.84952505624589
h        -0.52568402618588   -1.85169043289999   -4.74828402586618
h         1.62429086200042   -0.52716523620292   -4.76056880116529
h         2.18812357358442   -1.69340347372809   -5.86647070487002
h        -0.11420616307883   -1.05116318595881    0.92035733361337
h        -2.66465595159418   -1.84811821245819   -0.31587940493148
h        -3.74844941297875   -0.98398620206628    1.84123942562423
h        -2.26411005691408   -0.93796016792359    2.56083014658815
h        -2.87845174022649   -2.52405371826743    2.00855205650547
h        -0.56060278968265    0.23131890157319   -1.08943932566904
h        -2.19644079375873    2.51439258203151   -1.22221582776525
h        -0.15103499233856    3.60554540216430   -1.90721654830416
h        -0.26657603534747    2.09998847787286   -2.95270842103144
h         0.86837781782190    2.17853456177960   -1.69698447968986
c         0.05213773278689    2.64321605247706    2.60422399803732
c         1.18001286925405    2.02589209406171    3.16756851226616
c        -0.63051949236781    3.62412639175078    3.30109909144480
c         1.49649181505940    2.36085690484846    4.48136639432928
c         0.73679212492666    3.25229630178696    5.21347191585295
c        -0.32653845520213    3.91490947936244    4.62201175853959
h        -1.49597421871172    4.01827780839616    2.79220216024257
h         0.86235024847634    3.52177965726739    6.25099574951834
h        -0.91328907481423    4.58044298961719    5.23650995890654
h         2.42629462020214    1.94515938350405    4.84018828293355
c         2.03244953607066    1.07019996783048    2.46426751048430
o         3.12240697872872    0.73081817208575    2.87076458220972
h         1.53593961704611    0.85929689491641    1.50356974928708
56
 energy: -94.085319849852 gnorm: 0.116814421621 xtb: 6.4.0 (d4b70c2)
c         1.17913219202963   -2.76678612577548   -0.68416393168982
c         1.44907995104057   -3.99373390351664    0.17582598546795
c        -0.31642447085684   -2.42755945107952   -0.66418779514148
o        -1.16548898645204   -2.95044142206314   -1.38077708043581
o         0.80935028048351   -1.09296689367136   -2.65753647225535
o        -0.54040722794831   -4.14083872559691   -3.85977022161335
n         1.55705249015426   -3.10226207142236   -2.04472991390865
c         1.21615780224060   -2.19700066713913   -2.98474426559513
c         1.32394165790605   -2.65826651503125   -4.42295401595180
c        -0.06768153101339   -3.24256796544787   -4.82432677177674
n         1.81783883978085   -1.61530719361131   -5.29231523810775
n        -0.63946765765635   -1.46584832814539    0.20109400150433
c        -2.00540526917471   -1.01684193611218    0.41211267327574
c        -2.64830038107011   -1.32597206371254    1.75456608280068
c        -2.02408317886412    0.51613909752769    0.21214677135699
o        -2.60313140813105    1.26956516321392    0.96450332588018
n        -1.09694854343320    0.90230441647537   -0.68361859469498
o        -0.95555230551660    4.19748733371886    0.63301597265911
o        -0.34448134737880    2.20191010328803    1.36967788518543
c        -0.74487592422896    2.28732984442284   -0.92691853621629
c        -0.75972527759610    3.03367569267951    0.41138296053581
c         0.61098221510675    2.49928415720065   -1.58499848924111
h         1.79103418482765   -1.91857046327829   -0.35629350836386
h         0.98121482572269   -4.89639438745954   -0.21299320413369
h         1.24480328161841   -3.99184192349682    1.24323159606603
h         2.52447160201794   -4.15331489371723    0.15838196098209
h        -0.86892660194176   -3.79822660257133   -3.00678806109700
h         1.66825982323369   -4.08903196698299   -2.22362068345307
h         2.16991292675237   -3.35604080336200   -4.43539228529846
h         0.05394294191004   -3.68782838128933   -5.81701838166132
h        -0.66877686357164   -2.32403175137614   -4.86015714591420
h         1.51199463159483   -0.66563692656843   -5.09311038669208
h         1.46168373844176   -1.72572905633679   -6.23604860856775
h         0.11727031839659   -0.92978981748965    0.60694204063345
h        -2.52976205654470   -1.57024706035283   -0.37664114622698
h        -3.62775626976361   -0.86173455928896    1.82125220928276
h        -1.91213278284012   -0.96634673082510    2.46947093658866
h        -2.82071228747167   -2.38834930711527    1.90651383877591
h        -0.68701435992872    0.13306941079297   -1.20066317011787
h        -1.56496148590751    2.63046218841240   -1.56941694288032
h         0.69721771487685    3.48640655080824   -2.03011667036486
h         0.58048773546186    1.87568265107730   -2.47410595226146
h         1.37427988539975    2.33111681577465   -0.82901584615289
c        -0.13813417905964    2.58274861451071    2.68380712452128
c         1.06671567988809    2.14711019566356    3.25748287868308
c        -1.13996552615531    3.23708359363874    3.37808393138558
c         1.33107638019279    2.49681570601476    4.57893830626266